TITLE = "PIV Result  3103 "
VARIABLES = "X (mm)""Y (mm)""Z (mm)""U (m/s)""V (m/s)""W (m/s)""Speed (m/s)""Vorticity""U-std""V-std""W-std""Speed-std""Vorticity-std""Flag"
ZONE T="ZONE 3103 "
I= 51 , J= 16 , K= 1 , F=POINT
DT=(DOUBLE DOUBLE DOUBLE DOUBLE DOUBLE DOUBLE DOUBLE DOUBLE DOUBLE DOUBLE DOUBLE DOUBLE DOUBLE DOUBLE)
4.469176	3.206148	0.000000	0.006371	0.009870	0.000000	0.011748	3.052432	0.000000	0.000000	0.000000	0.000000	0.000000	2
7.578168	3.206148	0.000000	0.009465	0.014767	0.000000	0.017540	1.786705	0.000000	0.000000	0.000000	0.000000	0.000000	1
10.687160	3.206148	0.000000	0.006510	0.010677	0.000000	0.012506	-0.900507	0.000000	0.000000	0.000000	0.000000	0.000000	1
13.796152	3.206148	0.000000	0.003539	0.004404	0.000000	0.005650	-1.645261	0.000000	0.000000	0.000000	0.000000	0.000000	1
16.905145	3.206148	0.000000	0.004611	0.004654	0.000000	0.006551	-0.769228	0.000000	0.000000	0.000000	0.000000	0.000000	1
20.014137	3.206148	0.000000	0.001679	0.007935	0.000000	0.008111	-3.761908	0.000000	0.000000	0.000000	0.000000	0.000000	1
23.123129	3.206148	0.000000	0.003866	0.007290	0.000000	0.008251	-5.416633	0.000000	0.000000	0.000000	0.000000	0.000000	1
26.232121	3.206148	0.000000	0.004989	0.008019	0.000000	0.009444	-2.090377	0.000000	0.000000	0.000000	0.000000	0.000000	1
29.341113	3.206148	0.000000	0.001169	0.008773	0.000000	0.008850	0.650788	0.000000	0.000000	0.000000	0.000000	0.000000	1
32.450105	3.206148	0.000000	0.008140	0.016380	0.000000	0.018292	-2.027744	0.000000	0.000000	0.000000	0.000000	0.000000	1
35.559097	3.206148	0.000000	0.004536	-0.000062	0.000000	0.004536	-5.510253	0.000000	0.000000	0.000000	0.000000	0.000000	1
38.668089	3.206148	0.000000	0.001819	-0.000286	0.000000	0.001841	-2.829127	0.000000	0.000000	0.000000	0.000000	0.000000	1
41.777081	3.206148	0.000000	0.002538	0.000695	0.000000	0.002632	-0.374163	0.000000	0.000000	0.000000	0.000000	0.000000	1
44.886073	3.206148	0.000000	-0.000397	0.000270	0.000000	0.000480	-0.706182	0.000000	0.000000	0.000000	0.000000	0.000000	1
47.995066	3.206148	0.000000	0.000732	0.000156	0.000000	0.000748	-1.700404	0.000000	0.000000	0.000000	0.000000	0.000000	1
51.104058	3.206148	0.000000	-0.001885	0.000273	0.000000	0.001904	-3.313466	0.000000	0.000000	0.000000	0.000000	0.000000	1
54.213050	3.206148	0.000000	-0.002545	-0.000559	0.000000	0.002606	-2.537275	0.000000	0.000000	0.000000	0.000000	0.000000	1
57.322042	3.206148	0.000000	0.007057	0.001185	0.000000	0.007155	0.373786	0.000000	0.000000	0.000000	0.000000	0.000000	1
60.431034	3.206148	0.000000	0.014090	0.001579	0.000000	0.014178	-0.125142	0.000000	0.000000	0.000000	0.000000	0.000000	1
63.540026	3.206148	0.000000	-0.003296	-0.001449	0.000000	0.003600	2.103215	0.000000	0.000000	0.000000	0.000000	0.000000	1
66.649018	3.206148	0.000000	-0.004339	-0.000751	0.000000	0.004404	4.031036	0.000000	0.000000	0.000000	0.000000	0.000000	1
69.758010	3.206148	0.000000	-0.002797	-0.000351	0.000000	0.002819	2.185636	0.000000	0.000000	0.000000	0.000000	0.000000	1
72.867002	3.206148	0.000000	-0.016862	-0.013601	0.000000	0.021663	2.151726	0.000000	0.000000	0.000000	0.000000	0.000000	1
75.975994	3.206148	0.000000	0.002235	0.024190	0.000000	0.024293	20.739551	0.000000	0.000000	0.000000	0.000000	0.000000	2
79.084987	3.206148	0.000000	0.000000	0.178003	0.000000	0.178003	67.706409	0.000000	0.000000	0.000000	0.000000	0.000000	2
82.193979	3.206148	0.000000	0.028240	0.396589	0.000000	0.397593	77.583929	0.000000	0.000000	0.000000	0.000000	0.000000	2
85.302971	3.206148	0.000000	0.179048	0.460914	0.000000	0.494469	11.358712	0.000000	0.000000	0.000000	0.000000	0.000000	2
88.411963	3.206148	0.000000	0.174346	0.214553	0.000000	0.276458	-66.148974	0.000000	0.000000	0.000000	0.000000	0.000000	2
91.520955	3.206148	0.000000	0.180346	0.008337	0.000000	0.180539	-56.375377	0.000000	0.000000	0.000000	0.000000	0.000000	2
94.629947	3.206148	0.000000	0.089585	0.004883	0.000000	0.089718	-14.963158	0.000000	0.000000	0.000000	0.000000	0.000000	2
97.738939	3.206148	0.000000	0.026124	0.001429	0.000000	0.026163	-9.105461	0.000000	0.000000	0.000000	0.000000	0.000000	1
100.847931	3.206148	0.000000	0.018607	-0.002038	0.000000	0.018718	-6.171998	0.000000	0.000000	0.000000	0.000000	0.000000	1
103.956923	3.206148	0.000000	0.009754	-0.003318	0.000000	0.010302	-3.847615	0.000000	0.000000	0.000000	0.000000	0.000000	1
107.065915	3.206148	0.000000	0.001692	-0.001368	0.000000	0.002176	4.632992	0.000000	0.000000	0.000000	0.000000	0.000000	1
110.174908	3.206148	0.000000	0.003314	-0.000162	0.000000	0.003318	8.682041	0.000000	0.000000	0.000000	0.000000	0.000000	1
113.283900	3.206148	0.000000	-0.002405	0.001485	0.000000	0.002827	4.068703	0.000000	0.000000	0.000000	0.000000	0.000000	1
116.392892	3.206148	0.000000	-0.003607	0.000348	0.000000	0.003624	-1.650954	0.000000	0.000000	0.000000	0.000000	0.000000	1
119.501884	3.206148	0.000000	0.001086	-0.000979	0.000000	0.001462	-1.757690	0.000000	0.000000	0.000000	0.000000	0.000000	1
122.610876	3.206148	0.000000	-0.001014	-0.000694	0.000000	0.001229	0.331460	0.000000	0.000000	0.000000	0.000000	0.000000	1
125.719868	3.206148	0.000000	0.000961	-0.000686	0.000000	0.001181	-0.670292	0.000000	0.000000	0.000000	0.000000	0.000000	1
128.828860	3.206148	0.000000	-0.016875	-0.001123	0.000000	0.016913	-2.169377	0.000000	0.000000	0.000000	0.000000	0.000000	1
131.937852	3.206148	0.000000	-0.017575	-0.001466	0.000000	0.017637	-0.952641	0.000000	0.000000	0.000000	0.000000	0.000000	1
135.046844	3.206148	0.000000	-0.001684	0.005326	0.000000	0.005585	0.759067	0.000000	0.000000	0.000000	0.000000	0.000000	1
138.155836	3.206148	0.000000	-0.001136	0.005615	0.000000	0.005729	0.562145	0.000000	0.000000	0.000000	0.000000	0.000000	1
141.264829	3.206148	0.000000	-0.002961	0.007363	0.000000	0.007937	0.215401	0.000000	0.000000	0.000000	0.000000	0.000000	1
144.373821	3.206148	0.000000	-0.003466	0.007586	0.000000	0.008341	-0.762395	0.000000	0.000000	0.000000	0.000000	0.000000	1
147.482813	3.206148	0.000000	-0.003465	0.005565	0.000000	0.006556	-0.345118	0.000000	0.000000	0.000000	0.000000	0.000000	1
150.591805	3.206148	0.000000	-0.003797	0.004176	0.000000	0.005645	1.415440	0.000000	0.000000	0.000000	0.000000	0.000000	1
153.700797	3.206148	0.000000	-0.004136	0.003775	0.000000	0.005600	1.583026	0.000000	0.000000	0.000000	0.000000	0.000000	1
156.809789	3.206148	0.000000	-0.006658	0.011903	0.000000	0.013639	-0.965722	0.000000	0.000000	0.000000	0.000000	0.000000	1
159.918781	3.206148	0.000000	-0.009978	0.011208	0.000000	0.015006	-2.966415	0.000000	0.000000	0.000000	0.000000	0.000000	1
4.469176	6.315140	0.000000	-0.000664	0.006700	0.000000	0.006733	1.392523	0.000000	0.000000	0.000000	0.000000	0.000000	1
7.578168	6.315140	0.000000	0.003401	0.007686	0.000000	0.008405	0.979600	0.000000	0.000000	0.000000	0.000000	0.000000	1
10.687160	6.315140	0.000000	0.007957	0.010398	0.000000	0.013093	-0.639421	0.000000	0.000000	0.000000	0.000000	0.000000	1
13.796152	6.315140	0.000000	0.007054	0.007195	0.000000	0.010076	-1.748207	0.000000	0.000000	0.000000	0.000000	0.000000	1
16.905145	6.315140	0.000000	0.004117	0.003943	0.000000	0.005701	0.256601	0.000000	0.000000	0.000000	0.000000	0.000000	1
20.014137	6.315140	0.000000	0.024194	0.019139	0.000000	0.030849	-0.015109	0.000000	0.000000	0.000000	0.000000	0.000000	1
23.123129	6.315140	0.000000	0.023671	0.018865	0.000000	0.030269	-1.525604	0.000000	0.000000	0.000000	0.000000	0.000000	1
26.232121	6.315140	0.000000	0.004207	0.013038	0.000000	0.013700	-0.117524	0.000000	0.000000	0.000000	0.000000	0.000000	1
29.341113	6.315140	0.000000	0.003576	0.012037	0.000000	0.012557	1.462613	0.000000	0.000000	0.000000	0.000000	0.000000	1
32.450105	6.315140	0.000000	0.015498	0.024161	0.000000	0.028705	-0.027058	0.000000	0.000000	0.000000	0.000000	0.000000	1
35.559097	6.315140	0.000000	0.015674	0.023915	0.000000	0.028594	-3.631038	0.000000	0.000000	0.000000	0.000000	0.000000	1
38.668089	6.315140	0.000000	0.002740	0.002858	0.000000	0.003960	-2.689279	0.000000	0.000000	0.000000	0.000000	0.000000	1
41.777081	6.315140	0.000000	0.001862	0.000281	0.000000	0.001883	-0.607824	0.000000	0.000000	0.000000	0.000000	0.000000	1
44.886073	6.315140	0.000000	0.000232	-0.002153	0.000000	0.002165	-0.848515	0.000000	0.000000	0.000000	0.000000	0.000000	1
47.995066	6.315140	0.000000	0.006774	-0.001338	0.000000	0.006905	-1.244780	0.000000	0.000000	0.000000	0.000000	0.000000	1
51.104058	6.315140	0.000000	0.007445	-0.001258	0.000000	0.007551	-1.214244	0.000000	0.000000	0.000000	0.000000	0.000000	1
54.213050	6.315140	0.000000	0.012095	-0.002487	0.000000	0.012348	0.443287	0.000000	0.000000	0.000000	0.000000	0.000000	1
57.322042	6.315140	0.000000	0.007869	0.005699	0.000000	0.009716	2.111648	0.000000	0.000000	0.000000	0.000000	0.000000	2
60.431034	6.315140	0.000000	0.012827	0.015026	0.000000	0.019756	0.337850	0.000000	0.000000	0.000000	0.000000	0.000000	1
63.540026	6.315140	0.000000	-0.023587	-0.015228	0.000000	0.028075	1.618285	0.000000	0.000000	0.000000	0.000000	0.000000	1
66.649018	6.315140	0.000000	-0.009167	-0.003160	0.000000	0.009696	2.485288	0.000000	0.000000	0.000000	0.000000	0.000000	2
69.758010	6.315140	0.000000	-0.015023	-0.008367	0.000000	0.017196	1.767439	0.000000	0.000000	0.000000	0.000000	0.000000	1
72.867002	6.315140	0.000000	0.003172	0.027624	0.000000	0.027806	1.740881	0.000000	0.000000	0.000000	0.000000	0.000000	1
75.975994	6.315140	0.000000	0.001299	0.020756	0.000000	0.020796	18.437483	0.000000	0.000000	0.000000	0.000000	0.000000	1
79.084987	6.315140	0.000000	0.015704	0.127802	0.000000	0.128763	70.528748	0.000000	0.000000	0.000000	0.000000	0.000000	2
82.193979	6.315140	0.000000	0.032653	0.525239	0.000000	0.526253	81.228535	0.000000	0.000000	0.000000	0.000000	0.000000	2
85.302971	6.315140	0.000000	0.040776	0.695983	0.000000	0.697177	14.184208	0.000000	0.000000	0.000000	0.000000	0.000000	2
88.411963	6.315140	0.000000	0.173185	0.575240	0.000000	0.600745	-63.381866	0.000000	0.000000	0.000000	0.000000	0.000000	2
91.520955	6.315140	0.000000	0.169643	0.174636	0.000000	0.243468	-81.877018	0.000000	0.000000	0.000000	0.000000	0.000000	2
94.629947	6.315140	0.000000	0.110548	0.082223	0.000000	0.137774	-52.231054	0.000000	0.000000	0.000000	0.000000	0.000000	2
97.738939	6.315140	0.000000	0.063135	0.063697	0.000000	0.089685	-33.188136	0.000000	0.000000	0.000000	0.000000	0.000000	1
100.847931	6.315140	0.000000	0.016992	0.069279	0.000000	0.071332	-24.610332	0.000000	0.000000	0.000000	0.000000	0.000000	1
103.956923	6.315140	0.000000	-0.000142	0.015573	0.000000	0.015574	-15.201758	0.000000	0.000000	0.000000	0.000000	0.000000	2
107.065915	6.315140	0.000000	-0.020747	-0.023086	0.000000	0.031039	-0.757248	0.000000	0.000000	0.000000	0.000000	0.000000	1
110.174908	6.315140	0.000000	-0.009088	0.002858	0.000000	0.009526	7.400319	0.000000	0.000000	0.000000	0.000000	0.000000	1
113.283900	6.315140	0.000000	-0.006615	0.030578	0.000000	0.031286	2.896041	0.000000	0.000000	0.000000	0.000000	0.000000	1
116.392892	6.315140	0.000000	-0.006454	0.029278	0.000000	0.029981	-2.258614	0.000000	0.000000	0.000000	0.000000	0.000000	1
119.501884	6.315140	0.000000	-0.002025	-0.000502	0.000000	0.002086	-1.699970	0.000000	0.000000	0.000000	0.000000	0.000000	1
122.610876	6.315140	0.000000	-0.001566	-0.001158	0.000000	0.001948	0.232618	0.000000	0.000000	0.000000	0.000000	0.000000	1
125.719868	6.315140	0.000000	-0.001883	-0.003731	0.000000	0.004180	-0.375060	0.000000	0.000000	0.000000	0.000000	0.000000	1
128.828860	6.315140	0.000000	-0.002681	-0.001111	0.000000	0.002902	-0.731789	0.000000	0.000000	0.000000	0.000000	0.000000	1
131.937852	6.315140	0.000000	-0.008032	0.005158	0.000000	0.009545	-0.543944	0.000000	0.000000	0.000000	0.000000	0.000000	1
135.046844	6.315140	0.000000	-0.008140	0.007419	0.000000	0.011013	-0.131591	0.000000	0.000000	0.000000	0.000000	0.000000	1
138.155836	6.315140	0.000000	0.000149	0.005433	0.000000	0.005435	0.334293	0.000000	0.000000	0.000000	0.000000	0.000000	1
141.264829	6.315140	0.000000	-0.003649	0.007797	0.000000	0.008609	0.256433	0.000000	0.000000	0.000000	0.000000	0.000000	1
144.373821	6.315140	0.000000	-0.003596	0.005918	0.000000	0.006925	-0.635379	0.000000	0.000000	0.000000	0.000000	0.000000	1
147.482813	6.315140	0.000000	-0.001236	0.001395	0.000000	0.001864	0.352657	0.000000	0.000000	0.000000	0.000000	0.000000	1
150.591805	6.315140	0.000000	-0.006076	0.007085	0.000000	0.009333	1.622779	0.000000	0.000000	0.000000	0.000000	0.000000	1
153.700797	6.315140	0.000000	-0.011780	0.010815	0.000000	0.015992	0.730203	0.000000	0.000000	0.000000	0.000000	0.000000	1
156.809789	6.315140	0.000000	-0.001321	0.006817	0.000000	0.006943	-0.586871	0.000000	0.000000	0.000000	0.000000	0.000000	1
159.918781	6.315140	0.000000	-0.000974	0.003408	0.000000	0.003545	-1.111896	0.000000	0.000000	0.000000	0.000000	0.000000	1
4.469176	9.424132	0.000000	0.001635	0.007373	0.000000	0.007552	0.189864	0.000000	0.000000	0.000000	0.000000	0.000000	1
7.578168	9.424132	0.000000	0.004985	0.008608	0.000000	0.009947	0.703423	0.000000	0.000000	0.000000	0.000000	0.000000	1
10.687160	9.424132	0.000000	0.010289	0.013618	0.000000	0.017068	0.415729	0.000000	0.000000	0.000000	0.000000	0.000000	1
13.796152	9.424132	0.000000	0.012638	0.016225	0.000000	0.020566	-1.578767	0.000000	0.000000	0.000000	0.000000	0.000000	1
16.905145	9.424132	0.000000	0.002918	0.009354	0.000000	0.009799	0.180322	0.000000	0.000000	0.000000	0.000000	0.000000	1
20.014137	9.424132	0.000000	0.017658	0.016880	0.000000	0.024428	3.366083	0.000000	0.000000	0.000000	0.000000	0.000000	1
23.123129	9.424132	0.000000	0.013985	0.016882	0.000000	0.021922	2.243840	0.000000	0.000000	0.000000	0.000000	0.000000	1
26.232121	9.424132	0.000000	-0.006938	0.015343	0.000000	0.016839	-0.693586	0.000000	0.000000	0.000000	0.000000	0.000000	1
29.341113	9.424132	0.000000	0.002080	0.013310	0.000000	0.013472	-0.975218	0.000000	0.000000	0.000000	0.000000	0.000000	1
32.450105	9.424132	0.000000	0.011753	0.014622	0.000000	0.018760	0.147293	0.000000	0.000000	0.000000	0.000000	0.000000	1
35.559097	9.424132	0.000000	0.012149	0.013464	0.000000	0.018135	-1.889195	0.000000	0.000000	0.000000	0.000000	0.000000	1
38.668089	9.424132	0.000000	0.002804	0.003407	0.000000	0.004412	-3.343427	0.000000	0.000000	0.000000	0.000000	0.000000	1
41.777081	9.424132	0.000000	0.002562	0.002694	0.000000	0.003718	-3.031760	0.000000	0.000000	0.000000	0.000000	0.000000	1
44.886073	9.424132	0.000000	0.006902	0.006085	0.000000	0.009202	-1.189600	0.000000	0.000000	0.000000	0.000000	0.000000	1
47.995066	9.424132	0.000000	0.010809	0.010065	0.000000	0.014769	0.372165	0.000000	0.000000	0.000000	0.000000	0.000000	1
51.104058	9.424132	0.000000	0.008526	0.011196	0.000000	0.014072	0.501420	0.000000	0.000000	0.000000	0.000000	0.000000	1
54.213050	9.424132	0.000000	-0.001985	0.014335	0.000000	0.014471	1.613168	0.000000	0.000000	0.000000	0.000000	0.000000	1
57.322042	9.424132	0.000000	0.004456	0.016325	0.000000	0.016922	0.017154	0.000000	0.000000	0.000000	0.000000	0.000000	1
60.431034	9.424132	0.000000	-0.014611	-0.003651	0.000000	0.015061	-4.081932	0.000000	0.000000	0.000000	0.000000	0.000000	1
63.540026	9.424132	0.000000	-0.019789	-0.007281	0.000000	0.021086	-0.808004	0.000000	0.000000	0.000000	0.000000	0.000000	1
66.649018	9.424132	0.000000	-0.008137	0.009816	0.000000	0.012751	2.920330	0.000000	0.000000	0.000000	0.000000	0.000000	1
69.758010	9.424132	0.000000	0.000390	0.018811	0.000000	0.018815	4.524128	0.000000	0.000000	0.000000	0.000000	0.000000	1
72.867002	9.424132	0.000000	0.003459	0.027953	0.000000	0.028167	4.693304	0.000000	0.000000	0.000000	0.000000	0.000000	1
75.975994	9.424132	0.000000	0.009132	0.030050	0.000000	0.031407	17.050494	0.000000	0.000000	0.000000	0.000000	0.000000	1
79.084987	9.424132	0.000000	0.012179	0.140864	0.000000	0.141390	62.604583	0.000000	0.000000	0.000000	0.000000	0.000000	1
82.193979	9.424132	0.000000	0.028943	0.434833	0.000000	0.435796	90.409294	0.000000	0.000000	0.000000	0.000000	0.000000	1
85.302971	9.424132	0.000000	0.073326	0.649770	0.000000	0.653894	39.754892	0.000000	0.000000	0.000000	0.000000	0.000000	2
88.411963	9.424132	0.000000	0.175568	0.660137	0.000000	0.683085	-38.653209	0.000000	0.000000	0.000000	0.000000	0.000000	2
91.520955	9.424132	0.000000	0.283840	0.568824	0.000000	0.635709	-87.407671	0.000000	0.000000	0.000000	0.000000	0.000000	2
94.629947	9.424132	0.000000	0.328767	0.266789	0.000000	0.423396	-74.117881	0.000000	0.000000	0.000000	0.000000	0.000000	1
97.738939	9.424132	0.000000	0.202817	0.257073	0.000000	0.327447	-44.170423	0.000000	0.000000	0.000000	0.000000	0.000000	1
100.847931	9.424132	0.000000	0.093317	0.141424	0.000000	0.169437	-49.290763	0.000000	0.000000	0.000000	0.000000	0.000000	2
103.956923	9.424132	0.000000	0.001039	0.063358	0.000000	0.063367	-41.550014	0.000000	0.000000	0.000000	0.000000	0.000000	1
107.065915	9.424132	0.000000	-0.006698	-0.003722	0.000000	0.007663	-13.782210	0.000000	0.000000	0.000000	0.000000	0.000000	1
110.174908	9.424132	0.000000	-0.024861	0.013131	0.000000	0.028116	1.286349	0.000000	0.000000	0.000000	0.000000	0.000000	1
113.283900	9.424132	0.000000	-0.004019	0.003802	0.000000	0.005533	-0.755958	0.000000	0.000000	0.000000	0.000000	0.000000	1
116.392892	9.424132	0.000000	-0.007948	-0.003934	0.000000	0.008868	-1.500760	0.000000	0.000000	0.000000	0.000000	0.000000	1
119.501884	9.424132	0.000000	-0.005359	-0.004487	0.000000	0.006989	-0.579697	0.000000	0.000000	0.000000	0.000000	0.000000	1
122.610876	9.424132	0.000000	-0.001912	-0.002428	0.000000	0.003090	0.240215	0.000000	0.000000	0.000000	0.000000	0.000000	1
125.719868	9.424132	0.000000	-0.001085	-0.002822	0.000000	0.003023	0.536302	0.000000	0.000000	0.000000	0.000000	0.000000	1
128.828860	9.424132	0.000000	-0.000546	-0.000082	0.000000	0.000552	1.465112	0.000000	0.000000	0.000000	0.000000	0.000000	1
131.937852	9.424132	0.000000	-0.003010	0.007157	0.000000	0.007764	0.647250	0.000000	0.000000	0.000000	0.000000	0.000000	1
135.046844	9.424132	0.000000	-0.005218	0.004809	0.000000	0.007096	-0.601009	0.000000	0.000000	0.000000	0.000000	0.000000	1
138.155836	9.424132	0.000000	-0.001716	0.003171	0.000000	0.003605	-0.071924	0.000000	0.000000	0.000000	0.000000	0.000000	1
141.264829	9.424132	0.000000	-0.002977	0.005617	0.000000	0.006358	0.333270	0.000000	0.000000	0.000000	0.000000	0.000000	1
144.373821	9.424132	0.000000	-0.003299	0.006160	0.000000	0.006988	-0.146996	0.000000	0.000000	0.000000	0.000000	0.000000	1
147.482813	9.424132	0.000000	-0.002745	0.005455	0.000000	0.006107	0.266639	0.000000	0.000000	0.000000	0.000000	0.000000	1
150.591805	9.424132	0.000000	-0.012678	0.008733	0.000000	0.015395	-0.374617	0.000000	0.000000	0.000000	0.000000	0.000000	1
153.700797	9.424132	0.000000	-0.009216	0.006644	0.000000	0.011361	-1.456057	0.000000	0.000000	0.000000	0.000000	0.000000	1
156.809789	9.424132	0.000000	-0.004202	0.003122	0.000000	0.005235	-0.313859	0.000000	0.000000	0.000000	0.000000	0.000000	1
159.918781	9.424132	0.000000	-0.005204	0.004037	0.000000	0.006586	0.763065	0.000000	0.000000	0.000000	0.000000	0.000000	1
4.469176	12.533124	0.000000	0.000895	0.007975	0.000000	0.008026	0.657435	0.000000	0.000000	0.000000	0.000000	0.000000	1
7.578168	12.533124	0.000000	0.003674	0.008713	0.000000	0.009456	1.493711	0.000000	0.000000	0.000000	0.000000	0.000000	1
10.687160	12.533124	0.000000	0.010668	0.014098	0.000000	0.017680	1.730266	0.000000	0.000000	0.000000	0.000000	0.000000	1
13.796152	12.533124	0.000000	0.013298	0.016249	0.000000	0.020997	-0.260382	0.000000	0.000000	0.000000	0.000000	0.000000	1
16.905145	12.533124	0.000000	0.010548	0.011446	0.000000	0.015565	-0.408968	0.000000	0.000000	0.000000	0.000000	0.000000	1
20.014137	12.533124	0.000000	0.005589	0.007982	0.000000	0.009744	1.126640	0.000000	0.000000	0.000000	0.000000	0.000000	1
23.123129	12.533124	0.000000	0.000349	0.011088	0.000000	0.011094	0.546000	0.000000	0.000000	0.000000	0.000000	0.000000	1
26.232121	12.533124	0.000000	0.013769	0.017279	0.000000	0.022094	-1.441668	0.000000	0.000000	0.000000	0.000000	0.000000	1
29.341113	12.533124	0.000000	0.017078	0.017114	0.000000	0.024177	-1.442365	0.000000	0.000000	0.000000	0.000000	0.000000	1
32.450105	12.533124	0.000000	0.013011	0.017421	0.000000	0.021744	-0.029179	0.000000	0.000000	0.000000	0.000000	0.000000	1
35.559097	12.533124	0.000000	0.012424	0.013869	0.000000	0.018620	-0.710689	0.000000	0.000000	0.000000	0.000000	0.000000	1
38.668089	12.533124	0.000000	0.003268	0.005706	0.000000	0.006576	-3.128866	0.000000	0.000000	0.000000	0.000000	0.000000	1
41.777081	12.533124	0.000000	0.021326	-0.006847	0.000000	0.022398	-2.000152	0.000000	0.000000	0.000000	0.000000	0.000000	1
44.886073	12.533124	0.000000	0.022528	-0.008295	0.000000	0.024006	4.547361	0.000000	0.000000	0.000000	0.000000	0.000000	1
47.995066	12.533124	0.000000	0.010597	0.018321	0.000000	0.021165	5.048649	0.000000	0.000000	0.000000	0.000000	0.000000	1
51.104058	12.533124	0.000000	0.008483	0.020825	0.000000	0.022486	1.595037	0.000000	0.000000	0.000000	0.000000	0.000000	1
54.213050	12.533124	0.000000	-0.002081	0.015125	0.000000	0.015268	1.648296	0.000000	0.000000	0.000000	0.000000	0.000000	1
57.322042	12.533124	0.000000	0.010355	0.018906	0.000000	0.021556	1.378346	0.000000	0.000000	0.000000	0.000000	0.000000	1
60.431034	12.533124	0.000000	0.011752	0.023730	0.000000	0.026480	-2.847755	0.000000	0.000000	0.000000	0.000000	0.000000	1
63.540026	12.533124	0.000000	-0.015695	-0.006255	0.000000	0.016896	-1.628878	0.000000	0.000000	0.000000	0.000000	0.000000	1
66.649018	12.533124	0.000000	-0.012235	0.006526	0.000000	0.013866	4.120015	0.000000	0.000000	0.000000	0.000000	0.000000	1
69.758010	12.533124	0.000000	-0.006480	0.017632	0.000000	0.018785	7.850166	0.000000	0.000000	0.000000	0.000000	0.000000	1
72.867002	12.533124	0.000000	-0.017699	0.045137	0.000000	0.048483	7.352582	0.000000	0.000000	0.000000	0.000000	0.000000	1
75.975994	12.533124	0.000000	-0.012175	0.036091	0.000000	0.038089	10.811558	0.000000	0.000000	0.000000	0.000000	0.000000	2
79.084987	12.533124	0.000000	-0.008213	0.071481	0.000000	0.071952	36.625616	0.000000	0.000000	0.000000	0.000000	0.000000	2
82.193979	12.533124	0.000000	-0.004503	0.180678	0.000000	0.180734	93.921248	0.000000	0.000000	0.000000	0.000000	0.000000	2
85.302971	12.533124	0.000000	0.082942	0.678086	0.000000	0.683140	104.271360	0.000000	0.000000	0.000000	0.000000	0.000000	2
88.411963	12.533124	0.000000	0.224445	0.767288	0.000000	0.799441	26.951754	0.000000	0.000000	0.000000	0.000000	0.000000	2
91.520955	12.533124	0.000000	0.277571	0.652556	0.000000	0.709137	-49.428861	0.000000	0.000000	0.000000	0.000000	0.000000	2
94.629947	12.533124	0.000000	0.347185	0.376751	0.000000	0.512327	-49.150682	0.000000	0.000000	0.000000	0.000000	0.000000	1
97.738939	12.533124	0.000000	0.234953	0.296559	0.000000	0.378351	-22.560579	0.000000	0.000000	0.000000	0.000000	0.000000	1
100.847931	12.533124	0.000000	0.205943	0.311044	0.000000	0.373043	-47.779155	0.000000	0.000000	0.000000	0.000000	0.000000	1
103.956923	12.533124	0.000000	0.070860	0.126875	0.000000	0.145322	-60.548525	0.000000	0.000000	0.000000	0.000000	0.000000	1
107.065915	12.533124	0.000000	0.014351	0.026325	0.000000	0.029982	-32.649689	0.000000	0.000000	0.000000	0.000000	0.000000	1
110.174908	12.533124	0.000000	-0.012407	0.035135	0.000000	0.037261	-13.552618	0.000000	0.000000	0.000000	0.000000	0.000000	1
113.283900	12.533124	0.000000	-0.018158	0.006523	0.000000	0.019294	-7.167865	0.000000	0.000000	0.000000	0.000000	0.000000	1
116.392892	12.533124	0.000000	-0.009600	-0.005509	0.000000	0.011068	-1.584921	0.000000	0.000000	0.000000	0.000000	0.000000	1
119.501884	12.533124	0.000000	-0.004300	-0.003254	0.000000	0.005392	0.286774	0.000000	0.000000	0.000000	0.000000	0.000000	1
122.610876	12.533124	0.000000	-0.001924	-0.000557	0.000000	0.002003	0.087000	0.000000	0.000000	0.000000	0.000000	0.000000	1
125.719868	12.533124	0.000000	-0.003259	-0.001747	0.000000	0.003698	1.083872	0.000000	0.000000	0.000000	0.000000	0.000000	1
128.828860	12.533124	0.000000	-0.003399	0.004216	0.000000	0.005415	1.957014	0.000000	0.000000	0.000000	0.000000	0.000000	1
131.937852	12.533124	0.000000	-0.003880	0.007188	0.000000	0.008168	1.861225	0.000000	0.000000	0.000000	0.000000	0.000000	1
135.046844	12.533124	0.000000	-0.007018	0.010713	0.000000	0.012807	1.216522	0.000000	0.000000	0.000000	0.000000	0.000000	1
138.155836	12.533124	0.000000	-0.001649	0.004535	0.000000	0.004825	0.480782	0.000000	0.000000	0.000000	0.000000	0.000000	1
141.264829	12.533124	0.000000	-0.002511	0.005592	0.000000	0.006130	0.429864	0.000000	0.000000	0.000000	0.000000	0.000000	1
144.373821	12.533124	0.000000	-0.004224	0.006209	0.000000	0.007510	0.241669	0.000000	0.000000	0.000000	0.000000	0.000000	1
147.482813	12.533124	0.000000	-0.003422	0.006359	0.000000	0.007221	-0.139416	0.000000	0.000000	0.000000	0.000000	0.000000	1
150.591805	12.533124	0.000000	-0.002468	0.005136	0.000000	0.005698	-1.259150	0.000000	0.000000	0.000000	0.000000	0.000000	1
153.700797	12.533124	0.000000	-0.001778	0.000273	0.000000	0.001799	-1.350832	0.000000	0.000000	0.000000	0.000000	0.000000	1
156.809789	12.533124	0.000000	-0.003518	0.001826	0.000000	0.003964	-0.349622	0.000000	0.000000	0.000000	0.000000	0.000000	1
159.918781	12.533124	0.000000	-0.006349	0.005322	0.000000	0.008284	-0.002432	0.000000	0.000000	0.000000	0.000000	0.000000	1
4.469176	15.642117	0.000000	0.001504	0.004485	0.000000	0.004730	-0.180560	0.000000	0.000000	0.000000	0.000000	0.000000	1
7.578168	15.642117	0.000000	0.000577	0.005410	0.000000	0.005441	1.005132	0.000000	0.000000	0.000000	0.000000	0.000000	1
10.687160	15.642117	0.000000	0.007082	0.010991	0.000000	0.013075	2.105600	0.000000	0.000000	0.000000	0.000000	0.000000	1
13.796152	15.642117	0.000000	0.010917	0.013213	0.000000	0.017139	1.481714	0.000000	0.000000	0.000000	0.000000	0.000000	1
16.905145	15.642117	0.000000	0.005279	0.009795	0.000000	0.011128	0.905976	0.000000	0.000000	0.000000	0.000000	0.000000	1
20.014137	15.642117	0.000000	0.007687	0.011952	0.000000	0.014210	-0.090524	0.000000	0.000000	0.000000	0.000000	0.000000	1
23.123129	15.642117	0.000000	0.010991	0.010431	0.000000	0.015153	-1.115757	0.000000	0.000000	0.000000	0.000000	0.000000	1
26.232121	15.642117	0.000000	0.013675	0.013131	0.000000	0.018958	-0.791771	0.000000	0.000000	0.000000	0.000000	0.000000	1
29.341113	15.642117	0.000000	0.011018	0.013265	0.000000	0.017244	1.007604	0.000000	0.000000	0.000000	0.000000	0.000000	1
32.450105	15.642117	0.000000	0.005784	0.010212	0.000000	0.011736	2.522749	0.000000	0.000000	0.000000	0.000000	0.000000	1
35.559097	15.642117	0.000000	0.007600	0.011326	0.000000	0.013639	1.465398	0.000000	0.000000	0.000000	0.000000	0.000000	1
38.668089	15.642117	0.000000	0.002824	0.012134	0.000000	0.012458	-0.710205	0.000000	0.000000	0.000000	0.000000	0.000000	1
41.777081	15.642117	0.000000	0.014599	-0.006765	0.000000	0.016091	4.660935	0.000000	0.000000	0.000000	0.000000	0.000000	1
44.886073	15.642117	0.000000	0.003500	0.008403	0.000000	0.009103	14.351177	0.000000	0.000000	0.000000	0.000000	0.000000	1
47.995066	15.642117	0.000000	0.009093	0.052148	0.000000	0.052934	9.140861	0.000000	0.000000	0.000000	0.000000	0.000000	1
51.104058	15.642117	0.000000	-0.008024	0.047240	0.000000	0.047917	1.538404	0.000000	0.000000	0.000000	0.000000	0.000000	1
54.213050	15.642117	0.000000	-0.030763	0.030349	0.000000	0.043214	2.045196	0.000000	0.000000	0.000000	0.000000	0.000000	1
57.322042	15.642117	0.000000	-0.006237	0.002149	0.000000	0.006597	6.107836	0.000000	0.000000	0.000000	0.000000	0.000000	1
60.431034	15.642117	0.000000	-0.008004	0.021852	0.000000	0.023272	5.326414	0.000000	0.000000	0.000000	0.000000	0.000000	1
63.540026	15.642117	0.000000	-0.016744	0.010814	0.000000	0.019933	-0.300033	0.000000	0.000000	0.000000	0.000000	0.000000	1
66.649018	15.642117	0.000000	-0.016569	0.006547	0.000000	0.017816	3.795638	0.000000	0.000000	0.000000	0.000000	0.000000	1
69.758010	15.642117	0.000000	-0.007617	0.017596	0.000000	0.019174	11.186864	0.000000	0.000000	0.000000	0.000000	0.000000	1
72.867002	15.642117	0.000000	-0.010839	0.067692	0.000000	0.068555	8.246413	0.000000	0.000000	0.000000	0.000000	0.000000	1
75.975994	15.642117	0.000000	-0.033974	0.072604	0.000000	0.080159	2.173648	0.000000	0.000000	0.000000	0.000000	0.000000	1
79.084987	15.642117	0.000000	-0.017474	0.040836	0.000000	0.044417	13.396763	0.000000	0.000000	0.000000	0.000000	0.000000	1
82.193979	15.642117	0.000000	-0.079045	0.079200	0.000000	0.111896	72.938067	0.000000	0.000000	0.000000	0.000000	0.000000	2
85.302971	15.642117	0.000000	-0.004352	0.331424	0.000000	0.331452	145.602393	0.000000	0.000000	0.000000	0.000000	0.000000	2
88.411963	15.642117	0.000000	0.147122	0.982323	0.000000	0.993279	96.921614	0.000000	0.000000	0.000000	0.000000	0.000000	2
91.520955	15.642117	0.000000	0.201535	0.916899	0.000000	0.938786	-30.662570	0.000000	0.000000	0.000000	0.000000	0.000000	2
94.629947	15.642117	0.000000	0.198050	0.603577	0.000000	0.635239	-62.457578	0.000000	0.000000	0.000000	0.000000	0.000000	1
97.738939	15.642117	0.000000	0.223374	0.394985	0.000000	0.453772	-34.700521	0.000000	0.000000	0.000000	0.000000	0.000000	1
100.847931	15.642117	0.000000	0.247527	0.363834	0.000000	0.440050	-63.221654	0.000000	0.000000	0.000000	0.000000	0.000000	1
103.956923	15.642117	0.000000	0.155861	0.223500	0.000000	0.272479	-79.835716	0.000000	0.000000	0.000000	0.000000	0.000000	1
107.065915	15.642117	0.000000	0.090347	0.133355	0.000000	0.161078	-60.348516	0.000000	0.000000	0.000000	0.000000	0.000000	2
110.174908	15.642117	0.000000	0.016131	0.035050	0.000000	0.038584	-45.736080	0.000000	0.000000	0.000000	0.000000	0.000000	2
113.283900	15.642117	0.000000	-0.007146	0.004256	0.000000	0.008318	-23.654039	0.000000	0.000000	0.000000	0.000000	0.000000	2
116.392892	15.642117	0.000000	-0.005518	-0.007708	0.000000	0.009480	-6.120652	0.000000	0.000000	0.000000	0.000000	0.000000	1
119.501884	15.642117	0.000000	-0.000972	-0.001204	0.000000	0.001547	0.762155	0.000000	0.000000	0.000000	0.000000	0.000000	1
122.610876	15.642117	0.000000	-0.001116	0.000012	0.000000	0.001116	-0.286467	0.000000	0.000000	0.000000	0.000000	0.000000	1