TITLE = "PIV Result  1185 "
VARIABLES = "X (mm)""Y (mm)""Z (mm)""U (m/s)""V (m/s)""W (m/s)""Speed (m/s)""Vorticity""U-std""V-std""W-std""Speed-std""Vorticity-std""Flag"
ZONE T="ZONE 1185 "
I= 51 , J= 16 , K= 1 , F=POINT
DT=(DOUBLE DOUBLE DOUBLE DOUBLE DOUBLE DOUBLE DOUBLE DOUBLE DOUBLE DOUBLE DOUBLE DOUBLE DOUBLE DOUBLE)
4.469176	3.206148	0.000000	-0.001658	0.003413	0.000000	0.003795	1.514921	0.000000	0.000000	0.000000	0.000000	0.000000	1
7.578168	3.206148	0.000000	0.006712	0.009121	0.000000	0.011324	1.593999	0.000000	0.000000	0.000000	0.000000	0.000000	1
10.687160	3.206148	0.000000	0.006287	0.007979	0.000000	0.010159	1.148969	0.000000	0.000000	0.000000	0.000000	0.000000	1
13.796152	3.206148	0.000000	0.003606	0.007424	0.000000	0.008253	-0.157882	0.000000	0.000000	0.000000	0.000000	0.000000	1
16.905145	3.206148	0.000000	0.002961	0.003118	0.000000	0.004300	-0.432587	0.000000	0.000000	0.000000	0.000000	0.000000	1
20.014137	3.206148	0.000000	0.002477	0.002374	0.000000	0.003431	1.501633	0.000000	0.000000	0.000000	0.000000	0.000000	1
23.123129	3.206148	0.000000	0.010430	0.009896	0.000000	0.014377	2.147925	0.000000	0.000000	0.000000	0.000000	0.000000	1
26.232121	3.206148	0.000000	0.008252	0.008347	0.000000	0.011738	0.823467	0.000000	0.000000	0.000000	0.000000	0.000000	1
29.341113	3.206148	0.000000	0.006925	0.005674	0.000000	0.008953	0.349218	0.000000	0.000000	0.000000	0.000000	0.000000	1
32.450105	3.206148	0.000000	0.008836	0.006543	0.000000	0.010995	-1.084580	0.000000	0.000000	0.000000	0.000000	0.000000	1
35.559097	3.206148	0.000000	0.000758	-0.002321	0.000000	0.002441	-2.223039	0.000000	0.000000	0.000000	0.000000	0.000000	1
38.668089	3.206148	0.000000	0.000947	-0.001273	0.000000	0.001587	-1.381324	0.000000	0.000000	0.000000	0.000000	0.000000	1
41.777081	3.206148	0.000000	0.003802	0.000087	0.000000	0.003803	-0.883738	0.000000	0.000000	0.000000	0.000000	0.000000	1
44.886073	3.206148	0.000000	0.001834	0.000482	0.000000	0.001896	-1.364286	0.000000	0.000000	0.000000	0.000000	0.000000	1
47.995066	3.206148	0.000000	0.002458	0.000336	0.000000	0.002481	-1.720298	0.000000	0.000000	0.000000	0.000000	0.000000	1
51.104058	3.206148	0.000000	0.000979	-0.000358	0.000000	0.001043	-2.829456	0.000000	0.000000	0.000000	0.000000	0.000000	1
54.213050	3.206148	0.000000	-0.002743	0.000487	0.000000	0.002786	1.481670	0.000000	0.000000	0.000000	0.000000	0.000000	1
57.322042	3.206148	0.000000	-0.138014	-0.003003	0.000000	0.138047	19.862990	0.000000	0.000000	0.000000	0.000000	0.000000	1
60.431034	3.206148	0.000000	-0.192967	0.001328	0.000000	0.192971	41.615104	0.000000	0.000000	0.000000	0.000000	0.000000	1
63.540026	3.206148	0.000000	-0.243160	0.038783	0.000000	0.246234	34.736978	0.000000	0.000000	0.000000	0.000000	0.000000	2
66.649018	3.206148	0.000000	-0.268257	0.115160	0.000000	0.291931	30.822699	0.000000	0.000000	0.000000	0.000000	0.000000	2
69.758010	3.206148	0.000000	-0.381135	0.153349	0.000000	0.410828	79.154054	0.000000	0.000000	0.000000	0.000000	0.000000	2
72.867002	3.206148	0.000000	-0.466840	0.299931	0.000000	0.554886	96.535350	0.000000	0.000000	0.000000	0.000000	0.000000	2
75.975994	3.206148	0.000000	-0.531929	0.353979	0.000000	0.638944	95.083877	0.000000	0.000000	0.000000	0.000000	0.000000	2
79.084987	3.206148	0.000000	-0.533690	0.710644	0.000000	0.888729	76.185417	0.000000	0.000000	0.000000	0.000000	0.000000	2
82.193979	3.206148	0.000000	-0.422738	0.775600	0.000000	0.883325	-27.942354	0.000000	0.000000	0.000000	0.000000	0.000000	1
85.302971	3.206148	0.000000	-0.431886	0.517692	0.000000	0.674189	-119.205771	0.000000	0.000000	0.000000	0.000000	0.000000	1
88.411963	3.206148	0.000000	-0.047205	0.044193	0.000000	0.064663	-78.249283	0.000000	0.000000	0.000000	0.000000	0.000000	1
91.520955	3.206148	0.000000	-0.027057	0.028626	0.000000	0.039390	-12.765148	0.000000	0.000000	0.000000	0.000000	0.000000	1
94.629947	3.206148	0.000000	-0.022177	0.004199	0.000000	0.022571	-8.387670	0.000000	0.000000	0.000000	0.000000	0.000000	1
97.738939	3.206148	0.000000	-0.005628	-0.001091	0.000000	0.005732	-3.184988	0.000000	0.000000	0.000000	0.000000	0.000000	1
100.847931	3.206148	0.000000	-0.003855	0.000338	0.000000	0.003870	-0.711076	0.000000	0.000000	0.000000	0.000000	0.000000	1
103.956923	3.206148	0.000000	0.003499	0.000759	0.000000	0.003581	-3.157925	0.000000	0.000000	0.000000	0.000000	0.000000	1
107.065915	3.206148	0.000000	0.007511	-0.001302	0.000000	0.007623	-6.435595	0.000000	0.000000	0.000000	0.000000	0.000000	1
110.174908	3.206148	0.000000	0.004675	-0.002325	0.000000	0.005222	-4.467829	0.000000	0.000000	0.000000	0.000000	0.000000	1
113.283900	3.206148	0.000000	0.003755	0.000083	0.000000	0.003756	-0.353186	0.000000	0.000000	0.000000	0.000000	0.000000	1
116.392892	3.206148	0.000000	0.002104	0.001202	0.000000	0.002423	1.200499	0.000000	0.000000	0.000000	0.000000	0.000000	1
119.501884	3.206148	0.000000	-0.000409	0.000079	0.000000	0.000416	1.028884	0.000000	0.000000	0.000000	0.000000	0.000000	1
122.610876	3.206148	0.000000	0.002020	0.000696	0.000000	0.002137	1.314185	0.000000	0.000000	0.000000	0.000000	0.000000	1
125.719868	3.206148	0.000000	-0.001454	-0.000041	0.000000	0.001455	0.824625	0.000000	0.000000	0.000000	0.000000	0.000000	1
128.828860	3.206148	0.000000	-0.001671	-0.001024	0.000000	0.001960	0.897810	0.000000	0.000000	0.000000	0.000000	0.000000	1
131.937852	3.206148	0.000000	-0.002749	-0.000363	0.000000	0.002772	1.858381	0.000000	0.000000	0.000000	0.000000	0.000000	1
135.046844	3.206148	0.000000	-0.004004	0.007477	0.000000	0.008482	2.084755	0.000000	0.000000	0.000000	0.000000	0.000000	1
138.155836	3.206148	0.000000	-0.006271	0.014622	0.000000	0.015910	1.713131	0.000000	0.000000	0.000000	0.000000	0.000000	1
141.264829	3.206148	0.000000	-0.013196	0.017312	0.000000	0.021768	0.885818	0.000000	0.000000	0.000000	0.000000	0.000000	1
144.373821	3.206148	0.000000	-0.014548	0.015864	0.000000	0.021525	-1.581917	0.000000	0.000000	0.000000	0.000000	0.000000	1
147.482813	3.206148	0.000000	-0.004213	0.005205	0.000000	0.006696	-1.713827	0.000000	0.000000	0.000000	0.000000	0.000000	1
150.591805	3.206148	0.000000	-0.004351	0.005278	0.000000	0.006841	0.043729	0.000000	0.000000	0.000000	0.000000	0.000000	1
153.700797	3.206148	0.000000	-0.006180	0.002361	0.000000	0.006616	0.433707	0.000000	0.000000	0.000000	0.000000	0.000000	1
156.809789	3.206148	0.000000	-0.004240	0.003179	0.000000	0.005300	0.496270	0.000000	0.000000	0.000000	0.000000	0.000000	1
159.918781	3.206148	0.000000	-0.004190	0.003956	0.000000	0.005763	0.275942	0.000000	0.000000	0.000000	0.000000	0.000000	1
4.469176	6.315140	0.000000	-0.000496	0.005226	0.000000	0.005249	0.251177	0.000000	0.000000	0.000000	0.000000	0.000000	1
7.578168	6.315140	0.000000	0.000932	0.004321	0.000000	0.004420	0.500778	0.000000	0.000000	0.000000	0.000000	0.000000	1
10.687160	6.315140	0.000000	0.001000	0.004799	0.000000	0.004902	0.464383	0.000000	0.000000	0.000000	0.000000	0.000000	1
13.796152	6.315140	0.000000	0.004391	0.004737	0.000000	0.006459	-0.291095	0.000000	0.000000	0.000000	0.000000	0.000000	1
16.905145	6.315140	0.000000	0.002139	0.003156	0.000000	0.003813	-0.584416	0.000000	0.000000	0.000000	0.000000	0.000000	1
20.014137	6.315140	0.000000	0.001194	0.002264	0.000000	0.002559	0.396471	0.000000	0.000000	0.000000	0.000000	0.000000	1
23.123129	6.315140	0.000000	0.003768	0.005002	0.000000	0.006262	0.509239	0.000000	0.000000	0.000000	0.000000	0.000000	1
26.232121	6.315140	0.000000	0.004130	0.004272	0.000000	0.005942	-0.947881	0.000000	0.000000	0.000000	0.000000	0.000000	1
29.341113	6.315140	0.000000	0.006956	0.004589	0.000000	0.008333	-1.106993	0.000000	0.000000	0.000000	0.000000	0.000000	1
32.450105	6.315140	0.000000	0.009756	0.007279	0.000000	0.012172	-0.785870	0.000000	0.000000	0.000000	0.000000	0.000000	1
35.559097	6.315140	0.000000	0.006998	0.007205	0.000000	0.010044	-1.072987	0.000000	0.000000	0.000000	0.000000	0.000000	1
38.668089	6.315140	0.000000	0.003605	0.003506	0.000000	0.005029	-1.149526	0.000000	0.000000	0.000000	0.000000	0.000000	1
41.777081	6.315140	0.000000	0.004355	-0.000272	0.000000	0.004364	-1.129633	0.000000	0.000000	0.000000	0.000000	0.000000	1
44.886073	6.315140	0.000000	0.005001	-0.002308	0.000000	0.005508	0.186287	0.000000	0.000000	0.000000	0.000000	0.000000	1
47.995066	6.315140	0.000000	0.006644	-0.006413	0.000000	0.009234	3.428981	0.000000	0.000000	0.000000	0.000000	0.000000	1
51.104058	6.315140	0.000000	0.017421	0.005121	0.000000	0.018158	4.082966	0.000000	0.000000	0.000000	0.000000	0.000000	1
54.213050	6.315140	0.000000	0.006288	0.004350	0.000000	0.007646	8.329706	0.000000	0.000000	0.000000	0.000000	0.000000	1
57.322042	6.315140	0.000000	-0.195888	0.002820	0.000000	0.195909	29.552085	0.000000	0.000000	0.000000	0.000000	0.000000	2
60.431034	6.315140	0.000000	-0.264400	0.072374	0.000000	0.274126	47.816874	0.000000	0.000000	0.000000	0.000000	0.000000	2
63.540026	6.315140	0.000000	-0.293354	0.227625	0.000000	0.371308	51.365959	0.000000	0.000000	0.000000	0.000000	0.000000	1
66.649018	6.315140	0.000000	-0.295430	0.191537	0.000000	0.352087	59.392532	0.000000	0.000000	0.000000	0.000000	0.000000	1
69.758010	6.315140	0.000000	-0.527085	0.245882	0.000000	0.581615	80.576995	0.000000	0.000000	0.000000	0.000000	0.000000	1
72.867002	6.315140	0.000000	-0.661361	0.477535	0.000000	0.815743	88.216270	0.000000	0.000000	0.000000	0.000000	0.000000	1
75.975994	6.315140	0.000000	-0.597018	0.645687	0.000000	0.879399	87.205798	0.000000	0.000000	0.000000	0.000000	0.000000	1
79.084987	6.315140	0.000000	-0.615179	0.843096	0.000000	1.043675	74.286806	0.000000	0.000000	0.000000	0.000000	0.000000	1
82.193979	6.315140	0.000000	-0.535450	0.830727	0.000000	0.988339	-41.943517	0.000000	0.000000	0.000000	0.000000	0.000000	1
85.302971	6.315140	0.000000	-0.416554	0.396977	0.000000	0.575420	-131.264126	0.000000	0.000000	0.000000	0.000000	0.000000	2
88.411963	6.315140	0.000000	-0.023067	0.021783	0.000000	0.031727	-67.332065	0.000000	0.000000	0.000000	0.000000	0.000000	2
91.520955	6.315140	0.000000	0.009224	0.012823	0.000000	0.015796	-9.384402	0.000000	0.000000	0.000000	0.000000	0.000000	1
94.629947	6.315140	0.000000	-0.012266	0.009640	0.000000	0.015601	-4.088899	0.000000	0.000000	0.000000	0.000000	0.000000	1
97.738939	6.315140	0.000000	-0.004872	-0.004910	0.000000	0.006917	-0.577705	0.000000	0.000000	0.000000	0.000000	0.000000	1
100.847931	6.315140	0.000000	-0.005338	-0.016169	0.000000	0.017027	0.641118	0.000000	0.000000	0.000000	0.000000	0.000000	1
103.956923	6.315140	0.000000	0.030619	0.009307	0.000000	0.032002	-0.512393	0.000000	0.000000	0.000000	0.000000	0.000000	1
107.065915	6.315140	0.000000	0.029921	0.021366	0.000000	0.036766	-2.467013	0.000000	0.000000	0.000000	0.000000	0.000000	1
110.174908	6.315140	0.000000	0.015974	0.015595	0.000000	0.022324	-2.905042	0.000000	0.000000	0.000000	0.000000	0.000000	1
113.283900	6.315140	0.000000	-0.002236	0.003434	0.000000	0.004098	-1.546753	0.000000	0.000000	0.000000	0.000000	0.000000	1
116.392892	6.315140	0.000000	-0.002851	0.002036	0.000000	0.003503	0.319888	0.000000	0.000000	0.000000	0.000000	0.000000	1
119.501884	6.315140	0.000000	-0.002622	0.000253	0.000000	0.002634	0.854706	0.000000	0.000000	0.000000	0.000000	0.000000	1
122.610876	6.315140	0.000000	-0.004275	-0.000339	0.000000	0.004289	0.682874	0.000000	0.000000	0.000000	0.000000	0.000000	1
125.719868	6.315140	0.000000	-0.004022	-0.000657	0.000000	0.004075	0.433887	0.000000	0.000000	0.000000	0.000000	0.000000	1
128.828860	6.315140	0.000000	-0.001626	0.000250	0.000000	0.001645	1.154079	0.000000	0.000000	0.000000	0.000000	0.000000	1
131.937852	6.315140	0.000000	-0.004736	0.006367	0.000000	0.007935	1.946624	0.000000	0.000000	0.000000	0.000000	0.000000	1
135.046844	6.315140	0.000000	-0.006259	0.008676	0.000000	0.010697	1.352180	0.000000	0.000000	0.000000	0.000000	0.000000	1
138.155836	6.315140	0.000000	-0.006156	0.010926	0.000000	0.012541	0.444968	0.000000	0.000000	0.000000	0.000000	0.000000	1
141.264829	6.315140	0.000000	-0.015128	0.016187	0.000000	0.022155	-0.868016	0.000000	0.000000	0.000000	0.000000	0.000000	1
144.373821	6.315140	0.000000	-0.015304	0.016194	0.000000	0.022281	-2.844527	0.000000	0.000000	0.000000	0.000000	0.000000	1
147.482813	6.315140	0.000000	-0.004076	0.005315	0.000000	0.006698	-1.708521	0.000000	0.000000	0.000000	0.000000	0.000000	1
150.591805	6.315140	0.000000	-0.004162	0.005174	0.000000	0.006640	-0.058084	0.000000	0.000000	0.000000	0.000000	0.000000	1
153.700797	6.315140	0.000000	-0.009220	0.006179	0.000000	0.011099	-0.291133	0.000000	0.000000	0.000000	0.000000	0.000000	1
156.809789	6.315140	0.000000	-0.006162	0.004854	0.000000	0.007845	0.042223	0.000000	0.000000	0.000000	0.000000	0.000000	1
159.918781	6.315140	0.000000	-0.004222	0.003840	0.000000	0.005707	0.203203	0.000000	0.000000	0.000000	0.000000	0.000000	1
4.469176	9.424132	0.000000	0.001289	0.005979	0.000000	0.006117	-0.620301	0.000000	0.000000	0.000000	0.000000	0.000000	1
7.578168	9.424132	0.000000	0.001552	0.002993	0.000000	0.003372	-0.292242	0.000000	0.000000	0.000000	0.000000	0.000000	1
10.687160	9.424132	0.000000	0.003173	0.004237	0.000000	0.005294	-0.126472	0.000000	0.000000	0.000000	0.000000	0.000000	1
13.796152	9.424132	0.000000	0.004551	0.004965	0.000000	0.006735	-0.431465	0.000000	0.000000	0.000000	0.000000	0.000000	1
16.905145	9.424132	0.000000	0.002254	0.003211	0.000000	0.003923	-0.825175	0.000000	0.000000	0.000000	0.000000	0.000000	1
20.014137	9.424132	0.000000	0.004425	0.001903	0.000000	0.004816	-0.880304	0.000000	0.000000	0.000000	0.000000	0.000000	1
23.123129	9.424132	0.000000	0.005216	0.000578	0.000000	0.005248	-0.500808	0.000000	0.000000	0.000000	0.000000	0.000000	1
26.232121	9.424132	0.000000	0.015973	0.003820	0.000000	0.016423	-0.878122	0.000000	0.000000	0.000000	0.000000	0.000000	1
29.341113	9.424132	0.000000	0.019185	0.004538	0.000000	0.019715	-1.020203	0.000000	0.000000	0.000000	0.000000	0.000000	1
32.450105	9.424132	0.000000	0.008585	0.004068	0.000000	0.009500	-0.526513	0.000000	0.000000	0.000000	0.000000	0.000000	1
35.559097	9.424132	0.000000	0.004882	0.003636	0.000000	0.006087	-0.654803	0.000000	0.000000	0.000000	0.000000	0.000000	1
38.668089	9.424132	0.000000	0.002450	0.002242	0.000000	0.003321	-1.395336	0.000000	0.000000	0.000000	0.000000	0.000000	1
41.777081	9.424132	0.000000	0.007252	-0.001830	0.000000	0.007479	-2.111864	0.000000	0.000000	0.000000	0.000000	0.000000	1
44.886073	9.424132	0.000000	0.006223	-0.003191	0.000000	0.006993	2.908255	0.000000	0.000000	0.000000	0.000000	0.000000	1
47.995066	9.424132	0.000000	-0.021625	0.002981	0.000000	0.021830	12.642075	0.000000	0.000000	0.000000	0.000000	0.000000	1
51.104058	9.424132	0.000000	-0.003517	0.019805	0.000000	0.020115	21.005714	0.000000	0.000000	0.000000	0.000000	0.000000	1
54.213050	9.424132	0.000000	-0.012122	0.040402	0.000000	0.042181	26.345063	0.000000	0.000000	0.000000	0.000000	0.000000	1
57.322042	9.424132	0.000000	-0.256685	0.092302	0.000000	0.272776	39.600882	0.000000	0.000000	0.000000	0.000000	0.000000	2
60.431034	9.424132	0.000000	-0.315611	0.269168	0.000000	0.414803	54.185208	0.000000	0.000000	0.000000	0.000000	0.000000	1
63.540026	9.424132	0.000000	-0.342498	0.326911	0.000000	0.473471	67.755072	0.000000	0.000000	0.000000	0.000000	0.000000	1
66.649018	9.424132	0.000000	-0.662027	0.479494	0.000000	0.817431	82.353054	0.000000	0.000000	0.000000	0.000000	0.000000	1
69.758010	9.424132	0.000000	-0.686706	0.460595	0.000000	0.826869	76.703270	0.000000	0.000000	0.000000	0.000000	0.000000	1
72.867002	9.424132	0.000000	-0.589644	0.599125	0.000000	0.840613	46.093622	0.000000	0.000000	0.000000	0.000000	0.000000	1
75.975994	9.424132	0.000000	-0.751640	0.883582	0.000000	1.160035	30.642427	0.000000	0.000000	0.000000	0.000000	0.000000	1
79.084987	9.424132	0.000000	-0.723827	0.873909	0.000000	1.134743	17.083424	0.000000	0.000000	0.000000	0.000000	0.000000	1
82.193979	9.424132	0.000000	-0.762810	0.999485	0.000000	1.257318	-126.370347	0.000000	0.000000	0.000000	0.000000	0.000000	1
85.302971	9.424132	0.000000	-0.327127	0.150359	0.000000	0.360028	-168.095745	0.000000	0.000000	0.000000	0.000000	0.000000	2
88.411963	9.424132	0.000000	0.024259	0.024889	0.000000	0.034756	-46.093846	0.000000	0.000000	0.000000	0.000000	0.000000	1
91.520955	9.424132	0.000000	0.005061	0.012853	0.000000	0.013814	-3.543158	0.000000	0.000000	0.000000	0.000000	0.000000	1
94.629947	9.424132	0.000000	-0.002663	0.010974	0.000000	0.011292	2.985887	0.000000	0.000000	0.000000	0.000000	0.000000	1
97.738939	9.424132	0.000000	-0.011368	0.041743	0.000000	0.043263	4.761546	0.000000	0.000000	0.000000	0.000000	0.000000	1
100.847931	9.424132	0.000000	-0.012476	0.051494	0.000000	0.052984	0.662913	0.000000	0.000000	0.000000	0.000000	0.000000	1
103.956923	9.424132	0.000000	0.025511	0.026434	0.000000	0.036737	-1.621998	0.000000	0.000000	0.000000	0.000000	0.000000	1
107.065915	9.424132	0.000000	0.025384	0.018597	0.000000	0.031467	0.291328	0.000000	0.000000	0.000000	0.000000	0.000000	1
110.174908	9.424132	0.000000	0.011978	0.020643	0.000000	0.023866	1.042967	0.000000	0.000000	0.000000	0.000000	0.000000	1
113.283900	9.424132	0.000000	0.001123	0.010668	0.000000	0.010727	-1.116468	0.000000	0.000000	0.000000	0.000000	0.000000	1
116.392892	9.424132	0.000000	-0.003277	0.002420	0.000000	0.004073	-0.905387	0.000000	0.000000	0.000000	0.000000	0.000000	1
119.501884	9.424132	0.000000	-0.007824	0.004181	0.000000	0.008871	0.050049	0.000000	0.000000	0.000000	0.000000	0.000000	1
122.610876	9.424132	0.000000	-0.004176	0.002527	0.000000	0.004881	0.276504	0.000000	0.000000	0.000000	0.000000	0.000000	1
125.719868	9.424132	0.000000	-0.001933	0.002818	0.000000	0.003417	1.735398	0.000000	0.000000	0.000000	0.000000	0.000000	1
128.828860	9.424132	0.000000	-0.004486	0.003894	0.000000	0.005940	2.900981	0.000000	0.000000	0.000000	0.000000	0.000000	1
131.937852	9.424132	0.000000	-0.007135	0.007304	0.000000	0.010211	1.772176	0.000000	0.000000	0.000000	0.000000	0.000000	1
135.046844	9.424132	0.000000	-0.008321	0.011052	0.000000	0.013835	-0.343480	0.000000	0.000000	0.000000	0.000000	0.000000	1
138.155836	9.424132	0.000000	-0.003184	0.006899	0.000000	0.007598	-0.780546	0.000000	0.000000	0.000000	0.000000	0.000000	1
141.264829	9.424132	0.000000	-0.005835	0.006478	0.000000	0.008719	-1.409704	0.000000	0.000000	0.000000	0.000000	0.000000	1
144.373821	9.424132	0.000000	-0.001796	0.004090	0.000000	0.004467	-1.751995	0.000000	0.000000	0.000000	0.000000	0.000000	1
147.482813	9.424132	0.000000	-0.001783	0.004875	0.000000	0.005191	0.622728	0.000000	0.000000	0.000000	0.000000	0.000000	1
150.591805	9.424132	0.000000	-0.004201	0.011983	0.000000	0.012698	0.631438	0.000000	0.000000	0.000000	0.000000	0.000000	1
153.700797	9.424132	0.000000	-0.006148	0.007309	0.000000	0.009551	-1.213780	0.000000	0.000000	0.000000	0.000000	0.000000	1
156.809789	9.424132	0.000000	-0.006342	0.005595	0.000000	0.008457	-1.025290	0.000000	0.000000	0.000000	0.000000	0.000000	1
159.918781	9.424132	0.000000	-0.009570	0.001893	0.000000	0.009755	-0.844227	0.000000	0.000000	0.000000	0.000000	0.000000	1
4.469176	12.533124	0.000000	0.003586	-0.002015	0.000000	0.004113	0.631295	0.000000	0.000000	0.000000	0.000000	0.000000	1
7.578168	12.533124	0.000000	0.002484	0.002781	0.000000	0.003729	0.800598	0.000000	0.000000	0.000000	0.000000	0.000000	1
10.687160	12.533124	0.000000	0.004788	0.005602	0.000000	0.007369	0.604702	0.000000	0.000000	0.000000	0.000000	0.000000	1
13.796152	12.533124	0.000000	0.003641	0.003656	0.000000	0.005160	-0.034822	0.000000	0.000000	0.000000	0.000000	0.000000	1
16.905145	12.533124	0.000000	0.003366	0.002081	0.000000	0.003958	-0.278854	0.000000	0.000000	0.000000	0.000000	0.000000	1
20.014137	12.533124	0.000000	0.008543	0.000783	0.000000	0.008579	0.082649	0.000000	0.000000	0.000000	0.000000	0.000000	1
23.123129	12.533124	0.000000	0.004638	0.000404	0.000000	0.004656	1.107471	0.000000	0.000000	0.000000	0.000000	0.000000	1
26.232121	12.533124	0.000000	0.016274	0.003719	0.000000	0.016693	1.566460	0.000000	0.000000	0.000000	0.000000	0.000000	1
29.341113	12.533124	0.000000	0.015434	0.004692	0.000000	0.016131	1.520449	0.000000	0.000000	0.000000	0.000000	0.000000	1
32.450105	12.533124	0.000000	0.014304	0.008489	0.000000	0.016633	0.905485	0.000000	0.000000	0.000000	0.000000	0.000000	1
35.559097	12.533124	0.000000	0.009969	0.011329	0.000000	0.015091	-0.383106	0.000000	0.000000	0.000000	0.000000	0.000000	1
38.668089	12.533124	0.000000	0.000984	0.007497	0.000000	0.007561	-0.688190	0.000000	0.000000	0.000000	0.000000	0.000000	1
41.777081	12.533124	0.000000	0.017867	0.006274	0.000000	0.018936	9.673222	0.000000	0.000000	0.000000	0.000000	0.000000	1
44.886073	12.533124	0.000000	0.016769	0.007821	0.000000	0.018503	30.420304	0.000000	0.000000	0.000000	0.000000	0.000000	1
47.995066	12.533124	0.000000	-0.065453	0.040079	0.000000	0.076749	43.608519	0.000000	0.000000	0.000000	0.000000	0.000000	1
51.104058	12.533124	0.000000	-0.053211	0.065776	0.000000	0.084605	48.119420	0.000000	0.000000	0.000000	0.000000	0.000000	1
54.213050	12.533124	0.000000	-0.162463	0.094815	0.000000	0.188107	46.589895	0.000000	0.000000	0.000000	0.000000	0.000000	2
57.322042	12.533124	0.000000	-0.177493	0.188598	0.000000	0.258985	66.390231	0.000000	0.000000	0.000000	0.000000	0.000000	2
60.431034	12.533124	0.000000	-0.350984	0.335668	0.000000	0.485657	70.967772	0.000000	0.000000	0.000000	0.000000	0.000000	1
63.540026	12.533124	0.000000	-0.534206	0.446645	0.000000	0.696325	39.224761	0.000000	0.000000	0.000000	0.000000	0.000000	1
66.649018	12.533124	0.000000	-0.712306	0.495891	0.000000	0.867922	50.014235	0.000000	0.000000	0.000000	0.000000	0.000000	1
69.758010	12.533124	0.000000	-0.736948	0.924836	0.000000	1.182546	40.545882	0.000000	0.000000	0.000000	0.000000	0.000000	1
72.867002	12.533124	0.000000	-0.669703	1.033449	0.000000	1.231470	-43.980388	0.000000	0.000000	0.000000	0.000000	0.000000	1
75.975994	12.533124	0.000000	-0.493991	0.701977	0.000000	0.858370	-82.301243	0.000000	0.000000	0.000000	0.000000	0.000000	1
79.084987	12.533124	0.000000	-0.810212	0.883139	0.000000	1.198490	-122.753402	0.000000	0.000000	0.000000	0.000000	0.000000	1
82.193979	12.533124	0.000000	-0.433552	0.524889	0.000000	0.680791	-203.236274	0.000000	0.000000	0.000000	0.000000	0.000000	2
85.302971	12.533124	0.000000	-0.029379	0.029212	0.000000	0.041430	-133.278832	0.000000	0.000000	0.000000	0.000000	0.000000	1
88.411963	12.533124	0.000000	0.020605	0.022067	0.000000	0.030192	-18.279511	0.000000	0.000000	0.000000	0.000000	0.000000	1
91.520955	12.533124	0.000000	0.005496	0.012723	0.000000	0.013860	-0.278745	0.000000	0.000000	0.000000	0.000000	0.000000	1
94.629947	12.533124	0.000000	-0.008108	0.014292	0.000000	0.016432	2.050714	0.000000	0.000000	0.000000	0.000000	0.000000	1
97.738939	12.533124	0.000000	-0.018276	0.038128	0.000000	0.042282	3.017108	0.000000	0.000000	0.000000	0.000000	0.000000	1
100.847931	12.533124	0.000000	-0.015872	0.044305	0.000000	0.047062	0.167687	0.000000	0.000000	0.000000	0.000000	0.000000	1
103.956923	12.533124	0.000000	0.032177	0.038102	0.000000	0.049871	-2.851584	0.000000	0.000000	0.000000	0.000000	0.000000	1
107.065915	12.533124	0.000000	0.021524	0.016409	0.000000	0.027065	-3.036731	0.000000	0.000000	0.000000	0.000000	0.000000	1
110.174908	12.533124	0.000000	-0.013454	0.005979	0.000000	0.014723	0.563883	0.000000	0.000000	0.000000	0.000000	0.000000	1
113.283900	12.533124	0.000000	0.000011	0.011134	0.000000	0.011134	1.980762	0.000000	0.000000	0.000000	0.000000	0.000000	1
116.392892	12.533124	0.000000	-0.003162	0.002970	0.000000	0.004338	0.016506	0.000000	0.000000	0.000000	0.000000	0.000000	1
119.501884	12.533124	0.000000	-0.004415	0.004601	0.000000	0.006376	-1.853034	0.000000	0.000000	0.000000	0.000000	0.000000	1
122.610876	12.533124	0.000000	-0.003267	0.003486	0.000000	0.004777	-0.505694	0.000000	0.000000	0.000000	0.000000	0.000000	1
125.719868	12.533124	0.000000	-0.009788	0.009570	0.000000	0.013689	2.659584	0.000000	0.000000	0.000000	0.000000	0.000000	1
128.828860	12.533124	0.000000	-0.017201	0.017228	0.000000	0.024345	2.959439	0.000000	0.000000	0.000000	0.000000	0.000000	1
131.937852	12.533124	0.000000	-0.016727	0.016821	0.000000	0.023723	0.271190	0.000000	0.000000	0.000000	0.000000	0.000000	1
135.046844	12.533124	0.000000	-0.000279	0.004984	0.000000	0.004992	-1.497499	0.000000	0.000000	0.000000	0.000000	0.000000	1
138.155836	12.533124	0.000000	-0.004608	0.006046	0.000000	0.007602	-0.666671	0.000000	0.000000	0.000000	0.000000	0.000000	1
141.264829	12.533124	0.000000	-0.005378	0.006033	0.000000	0.008082	-0.457530	0.000000	0.000000	0.000000	0.000000	0.000000	1
144.373821	12.533124	0.000000	-0.003462	0.004222	0.000000	0.005460	-0.355805	0.000000	0.000000	0.000000	0.000000	0.000000	1
147.482813	12.533124	0.000000	-0.010181	0.003865	0.000000	0.010890	0.783886	0.000000	0.000000	0.000000	0.000000	0.000000	1
150.591805	12.533124	0.000000	-0.007622	0.011116	0.000000	0.013478	0.230876	0.000000	0.000000	0.000000	0.000000	0.000000	1
153.700797	12.533124	0.000000	-0.003834	0.006197	0.000000	0.007287	-0.839278	0.000000	0.000000	0.000000	0.000000	0.000000	1
156.809789	12.533124	0.000000	-0.003286	0.004213	0.000000	0.005343	-0.754198	0.000000	0.000000	0.000000	0.000000	0.000000	1
159.918781	12.533124	0.000000	-0.002462	0.006769	0.000000	0.007203	-0.855392	0.000000	0.000000	0.000000	0.000000	0.000000	1
4.469176	15.642117	0.000000	0.000580	0.001260	0.000000	0.001387	0.687798	0.000000	0.000000	0.000000	0.000000	0.000000	1
7.578168	15.642117	0.000000	0.000316	0.000558	0.000000	0.000641	0.792377	0.000000	0.000000	0.000000	0.000000	0.000000	1
10.687160	15.642117	0.000000	0.000311	0.001638	0.000000	0.001667	0.736232	0.000000	0.000000	0.000000	0.000000	0.000000	1
13.796152	15.642117	0.000000	0.002055	0.002423	0.000000	0.003177	0.348719	0.000000	0.000000	0.000000	0.000000	0.000000	1
16.905145	15.642117	0.000000	0.002692	0.001422	0.000000	0.003044	0.320416	0.000000	0.000000	0.000000	0.000000	0.000000	1
20.014137	15.642117	0.000000	0.001234	-0.000518	0.000000	0.001338	0.321616	0.000000	0.000000	0.000000	0.000000	0.000000	1
23.123129	15.642117	0.000000	0.001421	-0.000274	0.000000	0.001447	1.024311	0.000000	0.000000	0.000000	0.000000	0.000000	1
26.232121	15.642117	0.000000	0.011866	0.004350	0.000000	0.012638	1.355025	0.000000	0.000000	0.000000	0.000000	0.000000	1
29.341113	15.642117	0.000000	0.007849	0.002806	0.000000	0.008335	2.601295	0.000000	0.000000	0.000000	0.000000	0.000000	1
32.450105	15.642117	0.000000	0.013292	0.010305	0.000000	0.016819	4.719513	0.000000	0.000000	0.000000	0.000000	0.000000	1
35.559097	15.642117	0.000000	0.004921	0.011069	0.000000	0.012114	4.282349	0.000000	0.000000	0.000000	0.000000	0.000000	1
38.668089	15.642117	0.000000	-0.000402	0.006520	0.000000	0.006532	3.530066	0.000000	0.000000	0.000000	0.000000	0.000000	1
41.777081	15.642117	0.000000	0.007241	0.003855	0.000000	0.008203	25.048863	0.000000	0.000000	0.000000	0.000000	0.000000	1
44.886073	15.642117	0.000000	-0.134432	0.108369	0.000000	0.172673	51.911047	0.000000	0.000000	0.000000	0.000000	0.000000	2
47.995066	15.642117	0.000000	-0.227831	0.200523	0.000000	0.303506	54.826634	0.000000	0.000000	0.000000	0.000000	0.000000	2
51.104058	15.642117	0.000000	-0.264550	0.239995	0.000000	0.357189	45.081785	0.000000	0.000000	0.000000	0.000000	0.000000	1
54.213050	15.642117	0.000000	-0.272621	0.261684	0.000000	0.377890	28.948113	0.000000	0.000000	0.000000	0.000000	0.000000	1
57.322042	15.642117	0.000000	-0.360898	0.194393	0.000000	0.409922	66.819527	0.000000	0.000000	0.000000	0.000000	0.000000	1
60.431034	15.642117	0.000000	-0.460326	0.588829	0.000000	0.747408	64.936400	0.000000	0.000000	0.000000	0.000000	0.000000	2
63.540026	15.642117	0.000000	-0.568705	0.588950	0.000000	0.818711	0.671351	0.000000	0.000000	0.000000	0.000000	0.000000	1
66.649018	15.642117	0.000000	-0.485291	0.613260	0.000000	0.782046	9.363804	0.000000	0.000000	0.000000	0.000000	0.000000	1
69.758010	15.642117	0.000000	-0.634642	0.922166	0.000000	1.119446	-29.212396	0.000000	0.000000	0.000000	0.000000	0.000000	1
72.867002	15.642117	0.000000	-0.531135	0.766342	0.000000	0.932408	-115.248310	0.000000	0.000000	0.000000	0.000000	0.000000	2
75.975994	15.642117	0.000000	-0.244085	0.527653	0.000000	0.581374	-127.902213	0.000000	0.000000	0.000000	0.000000	0.000000	2
79.084987	15.642117	0.000000	-0.177676	0.364952	0.000000	0.405905	-149.920809	0.000000	0.000000	0.000000	0.000000	0.000000	2
82.193979	15.642117	0.000000	-0.033154	0.042315	0.000000	0.053756	-129.261645	0.000000	0.000000	0.000000	0.000000	0.000000	1
85.302971	15.642117	0.000000	-0.031490	0.042563	0.000000	0.052946	-41.519226	0.000000	0.000000	0.000000	0.000000	0.000000	1
88.411963	15.642117	0.000000	0.010399	0.014713	0.000000	0.018017	-2.226817	0.000000	0.000000	0.000000	0.000000	0.000000	1
91.520955	15.642117	0.000000	0.007119	0.028374	0.000000	0.029253	0.473735	0.000000	0.000000	0.000000	0.000000	0.000000	1
94.629947	15.642117	0.000000	-0.000799	0.029368	0.000000	0.029379	-4.066003	0.000000	0.000000	0.000000	0.000000	0.000000	1
97.738939	15.642117	0.000000	-0.015056	0.001780	0.000000	0.015161	-1.051401	0.000000	0.000000	0.000000	0.000000	0.000000	1
100.847931	15.642117	0.000000	0.005651	0.016478	0.000000	0.017420	4.883506	0.000000	0.000000	0.000000	0.000000	0.000000	1
103.956923	15.642117	0.000000	0.009784	0.038148	0.000000	0.039383	2.588877	0.000000	0.000000	0.000000	0.000000	0.000000	2
107.065915	15.642117	0.000000	0.032380	0.027912	0.000000	0.042750	-0.170278	0.000000	0.000000	0.000000	0.000000	0.000000	1
110.174908	15.642117	0.000000	-0.006966	0.011978	0.000000	0.013856	0.276986	0.000000	0.000000	0.000000	0.000000	0.000000	1
113.283900	15.642117	0.000000	-0.011832	0.016570	0.000000	0.020361	3.381773	0.000000	0.000000	0.000000	0.000000	0.000000	1
116.392892	15.642117	0.000000	-0.005089	0.038819	0.000000	0.039151	1.418012	0.000000	0.000000	0.000000	0.000000	0.000000	1
119.501884	15.642117	0.000000	-0.002585	0.025193	0.000000	0.025326	-4.251804	0.000000	0.000000	0.000000	0.000000	0.000000	1
122.610876	15.642117	0.000000	0.000222	0.004655	0.000000	0.004661	-2.186442	0.000000	0.000000	0.000000	0.000000	0.000000	1