TITLE = "PIV Result  2623 "
VARIABLES = "X (mm)""Y (mm)""Z (mm)""U (m/s)""V (m/s)""W (m/s)""Speed (m/s)""Vorticity""U-std""V-std""W-std""Speed-std""Vorticity-std""Flag"
ZONE T="ZONE 2623 "
I= 51 , J= 16 , K= 1 , F=POINT
DT=(DOUBLE DOUBLE DOUBLE DOUBLE DOUBLE DOUBLE DOUBLE DOUBLE DOUBLE DOUBLE DOUBLE DOUBLE DOUBLE DOUBLE)
4.469176	3.206148	0.000000	-0.000154	0.001298	0.000000	0.001307	0.777229	0.000000	0.000000	0.000000	0.000000	0.000000	1
7.578168	3.206148	0.000000	0.000339	0.005015	0.000000	0.005027	0.548134	0.000000	0.000000	0.000000	0.000000	0.000000	1
10.687160	3.206148	0.000000	0.000377	0.005039	0.000000	0.005054	0.854612	0.000000	0.000000	0.000000	0.000000	0.000000	1
13.796152	3.206148	0.000000	0.002750	0.007859	0.000000	0.008327	1.061270	0.000000	0.000000	0.000000	0.000000	0.000000	1
16.905145	3.206148	0.000000	0.002746	0.007857	0.000000	0.008323	0.061986	0.000000	0.000000	0.000000	0.000000	0.000000	1
20.014137	3.206148	0.000000	-0.000579	0.007613	0.000000	0.007635	-0.886333	0.000000	0.000000	0.000000	0.000000	0.000000	1
23.123129	3.206148	0.000000	-0.001510	0.008606	0.000000	0.008737	-1.144784	0.000000	0.000000	0.000000	0.000000	0.000000	1
26.232121	3.206148	0.000000	0.001583	0.008053	0.000000	0.008208	-1.063913	0.000000	0.000000	0.000000	0.000000	0.000000	1
29.341113	3.206148	0.000000	0.003456	0.004983	0.000000	0.006064	0.029715	0.000000	0.000000	0.000000	0.000000	0.000000	1
32.450105	3.206148	0.000000	0.000722	0.008547	0.000000	0.008577	-0.106199	0.000000	0.000000	0.000000	0.000000	0.000000	1
35.559097	3.206148	0.000000	0.000771	0.001769	0.000000	0.001929	-1.024075	0.000000	0.000000	0.000000	0.000000	0.000000	1
38.668089	3.206148	0.000000	0.000685	0.001391	0.000000	0.001550	-1.094487	0.000000	0.000000	0.000000	0.000000	0.000000	1
41.777081	3.206148	0.000000	-0.000456	0.000770	0.000000	0.000895	-1.803236	0.000000	0.000000	0.000000	0.000000	0.000000	1
44.886073	3.206148	0.000000	-0.000551	0.000643	0.000000	0.000847	-1.920119	0.000000	0.000000	0.000000	0.000000	0.000000	1
47.995066	3.206148	0.000000	-0.000813	0.000693	0.000000	0.001069	-2.832446	0.000000	0.000000	0.000000	0.000000	0.000000	1
51.104058	3.206148	0.000000	-0.002092	-0.000975	0.000000	0.002308	-3.820574	0.000000	0.000000	0.000000	0.000000	0.000000	1
54.213050	3.206148	0.000000	0.000796	-0.001726	0.000000	0.001901	18.930424	0.000000	0.000000	0.000000	0.000000	0.000000	1
57.322042	3.206148	0.000000	0.000200	0.001754	0.000000	0.001765	45.236114	0.000000	0.000000	0.000000	0.000000	0.000000	1
60.431034	3.206148	0.000000	-0.088202	0.101035	0.000000	0.134118	71.686474	0.000000	0.000000	0.000000	0.000000	0.000000	2
63.540026	3.206148	0.000000	-0.127087	0.205734	0.000000	0.241821	91.612338	0.000000	0.000000	0.000000	0.000000	0.000000	2
66.649018	3.206148	0.000000	-0.510521	0.246888	0.000000	0.567085	80.170387	0.000000	0.000000	0.000000	0.000000	0.000000	2
69.758010	3.206148	0.000000	-0.471155	0.299238	0.000000	0.558149	68.003736	0.000000	0.000000	0.000000	0.000000	0.000000	2
72.867002	3.206148	0.000000	-0.824600	0.392053	0.000000	0.913056	38.478004	0.000000	0.000000	0.000000	0.000000	0.000000	1
75.975994	3.206148	0.000000	-0.941412	0.833105	0.000000	1.257107	-51.379014	0.000000	0.000000	0.000000	0.000000	0.000000	1
79.084987	3.206148	0.000000	-0.309387	0.762271	0.000000	0.822665	-212.496342	0.000000	0.000000	0.000000	0.000000	0.000000	2
82.193979	3.206148	0.000000	-0.314848	-0.191912	0.000000	0.368727	-166.914655	0.000000	0.000000	0.000000	0.000000	0.000000	1
85.302971	3.206148	0.000000	-0.297649	-0.189038	0.000000	0.352605	-6.381228	0.000000	0.000000	0.000000	0.000000	0.000000	1
88.411963	3.206148	0.000000	-0.064001	0.020391	0.000000	0.067171	6.105198	0.000000	0.000000	0.000000	0.000000	0.000000	2
91.520955	3.206148	0.000000	-0.062129	0.025694	0.000000	0.067232	-7.001982	0.000000	0.000000	0.000000	0.000000	0.000000	1
94.629947	3.206148	0.000000	-0.090908	-0.002657	0.000000	0.090946	-15.168309	0.000000	0.000000	0.000000	0.000000	0.000000	1
97.738939	3.206148	0.000000	-0.008155	-0.001634	0.000000	0.008317	-6.543804	0.000000	0.000000	0.000000	0.000000	0.000000	1
100.847931	3.206148	0.000000	0.000236	0.001592	0.000000	0.001609	3.899976	0.000000	0.000000	0.000000	0.000000	0.000000	1
103.956923	3.206148	0.000000	0.001954	0.002864	0.000000	0.003468	3.747435	0.000000	0.000000	0.000000	0.000000	0.000000	1
107.065915	3.206148	0.000000	-0.002424	0.002075	0.000000	0.003191	2.102784	0.000000	0.000000	0.000000	0.000000	0.000000	1
110.174908	3.206148	0.000000	-0.001665	0.000881	0.000000	0.001884	2.398635	0.000000	0.000000	0.000000	0.000000	0.000000	1
113.283900	3.206148	0.000000	0.000000	0.001112	0.000000	0.001112	1.863394	0.000000	0.000000	0.000000	0.000000	0.000000	1
116.392892	3.206148	0.000000	0.000804	0.001202	0.000000	0.001446	0.989563	0.000000	0.000000	0.000000	0.000000	0.000000	1
119.501884	3.206148	0.000000	-0.000840	0.000458	0.000000	0.000957	1.776138	0.000000	0.000000	0.000000	0.000000	0.000000	1
122.610876	3.206148	0.000000	0.002038	0.000529	0.000000	0.002105	2.188153	0.000000	0.000000	0.000000	0.000000	0.000000	1
125.719868	3.206148	0.000000	0.000796	0.001081	0.000000	0.001342	1.408731	0.000000	0.000000	0.000000	0.000000	0.000000	1
128.828860	3.206148	0.000000	-0.001772	0.000613	0.000000	0.001875	2.033452	0.000000	0.000000	0.000000	0.000000	0.000000	1
131.937852	3.206148	0.000000	-0.002056	0.000549	0.000000	0.002128	2.839328	0.000000	0.000000	0.000000	0.000000	0.000000	1
135.046844	3.206148	0.000000	-0.008351	0.010840	0.000000	0.013683	1.785039	0.000000	0.000000	0.000000	0.000000	0.000000	1
138.155836	3.206148	0.000000	-0.003576	0.008720	0.000000	0.009425	0.695848	0.000000	0.000000	0.000000	0.000000	0.000000	1
141.264829	3.206148	0.000000	-0.001200	0.004161	0.000000	0.004330	0.799309	0.000000	0.000000	0.000000	0.000000	0.000000	1
144.373821	3.206148	0.000000	-0.003962	0.011265	0.000000	0.011942	0.735542	0.000000	0.000000	0.000000	0.000000	0.000000	1
147.482813	3.206148	0.000000	-0.004386	0.008229	0.000000	0.009325	0.528581	0.000000	0.000000	0.000000	0.000000	0.000000	1
150.591805	3.206148	0.000000	-0.005933	0.006692	0.000000	0.008943	0.351924	0.000000	0.000000	0.000000	0.000000	0.000000	1
153.700797	3.206148	0.000000	-0.008330	0.006740	0.000000	0.010716	-1.032274	0.000000	0.000000	0.000000	0.000000	0.000000	1
156.809789	3.206148	0.000000	-0.006708	0.003123	0.000000	0.007399	-0.719482	0.000000	0.000000	0.000000	0.000000	0.000000	1
159.918781	3.206148	0.000000	0.001656	0.007200	0.000000	0.007388	0.714318	0.000000	0.000000	0.000000	0.000000	0.000000	1
4.469176	6.315140	0.000000	-0.000218	0.005136	0.000000	0.005140	0.566145	0.000000	0.000000	0.000000	0.000000	0.000000	1
7.578168	6.315140	0.000000	-0.000637	0.005210	0.000000	0.005249	0.229406	0.000000	0.000000	0.000000	0.000000	0.000000	1
10.687160	6.315140	0.000000	-0.000991	0.004826	0.000000	0.004926	0.123640	0.000000	0.000000	0.000000	0.000000	0.000000	1
13.796152	6.315140	0.000000	-0.000256	0.006275	0.000000	0.006281	0.037379	0.000000	0.000000	0.000000	0.000000	0.000000	1
16.905145	6.315140	0.000000	0.002456	0.007534	0.000000	0.007924	-0.546325	0.000000	0.000000	0.000000	0.000000	0.000000	1
20.014137	6.315140	0.000000	0.002999	0.007282	0.000000	0.007875	-0.680319	0.000000	0.000000	0.000000	0.000000	0.000000	1
23.123129	6.315140	0.000000	0.002850	0.006988	0.000000	0.007547	-0.552684	0.000000	0.000000	0.000000	0.000000	0.000000	1
26.232121	6.315140	0.000000	0.003351	0.006672	0.000000	0.007466	-0.828024	0.000000	0.000000	0.000000	0.000000	0.000000	1
29.341113	6.315140	0.000000	0.003235	0.005056	0.000000	0.006003	-0.817011	0.000000	0.000000	0.000000	0.000000	0.000000	1
32.450105	6.315140	0.000000	0.000661	0.007814	0.000000	0.007842	-1.219624	0.000000	0.000000	0.000000	0.000000	0.000000	1
35.559097	6.315140	0.000000	-0.000232	0.005604	0.000000	0.005609	-1.997990	0.000000	0.000000	0.000000	0.000000	0.000000	1
38.668089	6.315140	0.000000	0.000939	0.000421	0.000000	0.001029	-1.642467	0.000000	0.000000	0.000000	0.000000	0.000000	1
41.777081	6.315140	0.000000	0.006728	-0.000321	0.000000	0.006736	-1.190585	0.000000	0.000000	0.000000	0.000000	0.000000	1
44.886073	6.315140	0.000000	0.006831	0.000748	0.000000	0.006872	-1.039654	0.000000	0.000000	0.000000	0.000000	0.000000	1
47.995066	6.315140	0.000000	0.010673	0.009312	0.000000	0.014164	-0.759655	0.000000	0.000000	0.000000	0.000000	0.000000	1
51.104058	6.315140	0.000000	0.011062	0.010649	0.000000	0.015355	9.048283	0.000000	0.000000	0.000000	0.000000	0.000000	1
54.213050	6.315140	0.000000	0.000980	0.002196	0.000000	0.002405	44.434003	0.000000	0.000000	0.000000	0.000000	0.000000	1
57.322042	6.315140	0.000000	-0.061448	0.195214	0.000000	0.204656	71.054435	0.000000	0.000000	0.000000	0.000000	0.000000	1
60.431034	6.315140	0.000000	-0.114957	0.312126	0.000000	0.332622	67.892134	0.000000	0.000000	0.000000	0.000000	0.000000	1
63.540026	6.315140	0.000000	-0.549887	0.344770	0.000000	0.649031	49.633645	0.000000	0.000000	0.000000	0.000000	0.000000	2
66.649018	6.315140	0.000000	-0.633299	0.310432	0.000000	0.705291	18.882218	0.000000	0.000000	0.000000	0.000000	0.000000	1
69.758010	6.315140	0.000000	-0.763022	0.288043	0.000000	0.815581	15.799594	0.000000	0.000000	0.000000	0.000000	0.000000	1
72.867002	6.315140	0.000000	-0.662984	0.466066	0.000000	0.810411	26.624090	0.000000	0.000000	0.000000	0.000000	0.000000	1
75.975994	6.315140	0.000000	-0.354050	0.851415	0.000000	0.922095	-33.250115	0.000000	0.000000	0.000000	0.000000	0.000000	2
79.084987	6.315140	0.000000	-0.267964	0.834660	0.000000	0.876620	-187.298826	0.000000	0.000000	0.000000	0.000000	0.000000	2
82.193979	6.315140	0.000000	-0.303926	-0.085044	0.000000	0.315600	-159.246597	0.000000	0.000000	0.000000	0.000000	0.000000	2
85.302971	6.315140	0.000000	-0.121514	-0.050379	0.000000	0.131544	-19.475066	0.000000	0.000000	0.000000	0.000000	0.000000	2
88.411963	6.315140	0.000000	-0.041402	0.009088	0.000000	0.042387	-5.704678	0.000000	0.000000	0.000000	0.000000	0.000000	2
91.520955	6.315140	0.000000	-0.065874	0.028403	0.000000	0.071736	-11.026498	0.000000	0.000000	0.000000	0.000000	0.000000	1
94.629947	6.315140	0.000000	-0.026454	0.024623	0.000000	0.036140	-13.997058	0.000000	0.000000	0.000000	0.000000	0.000000	2
97.738939	6.315140	0.000000	-0.009077	-0.008662	0.000000	0.012547	-5.518412	0.000000	0.000000	0.000000	0.000000	0.000000	1
100.847931	6.315140	0.000000	-0.014011	-0.012643	0.000000	0.018872	3.302608	0.000000	0.000000	0.000000	0.000000	0.000000	1
103.956923	6.315140	0.000000	-0.006680	-0.002712	0.000000	0.007210	3.308218	0.000000	0.000000	0.000000	0.000000	0.000000	1
107.065915	6.315140	0.000000	-0.006317	-0.001932	0.000000	0.006606	1.185506	0.000000	0.000000	0.000000	0.000000	0.000000	1
110.174908	6.315140	0.000000	-0.010217	0.000449	0.000000	0.010227	0.585209	0.000000	0.000000	0.000000	0.000000	0.000000	1
113.283900	6.315140	0.000000	-0.006361	0.001504	0.000000	0.006536	0.301695	0.000000	0.000000	0.000000	0.000000	0.000000	1
116.392892	6.315140	0.000000	-0.001228	-0.000004	0.000000	0.001228	0.042949	0.000000	0.000000	0.000000	0.000000	0.000000	1
119.501884	6.315140	0.000000	-0.007673	-0.002794	0.000000	0.008166	0.850713	0.000000	0.000000	0.000000	0.000000	0.000000	1
122.610876	6.315140	0.000000	-0.004765	0.000257	0.000000	0.004771	1.202848	0.000000	0.000000	0.000000	0.000000	0.000000	1
125.719868	6.315140	0.000000	-0.003675	-0.001114	0.000000	0.003840	0.835137	0.000000	0.000000	0.000000	0.000000	0.000000	1
128.828860	6.315140	0.000000	-0.003888	-0.000168	0.000000	0.003892	1.689325	0.000000	0.000000	0.000000	0.000000	0.000000	1
131.937852	6.315140	0.000000	-0.007992	0.010067	0.000000	0.012854	1.675414	0.000000	0.000000	0.000000	0.000000	0.000000	1
135.046844	6.315140	0.000000	-0.008547	0.010732	0.000000	0.013720	0.698941	0.000000	0.000000	0.000000	0.000000	0.000000	1
138.155836	6.315140	0.000000	-0.010246	0.011097	0.000000	0.015104	0.023566	0.000000	0.000000	0.000000	0.000000	0.000000	1
141.264829	6.315140	0.000000	-0.006926	0.006802	0.000000	0.009707	-0.261772	0.000000	0.000000	0.000000	0.000000	0.000000	1
144.373821	6.315140	0.000000	-0.002781	0.001551	0.000000	0.003184	0.552115	0.000000	0.000000	0.000000	0.000000	0.000000	1
147.482813	6.315140	0.000000	-0.005798	0.007105	0.000000	0.009171	0.826594	0.000000	0.000000	0.000000	0.000000	0.000000	1
150.591805	6.315140	0.000000	-0.008239	0.008749	0.000000	0.012017	-0.020216	0.000000	0.000000	0.000000	0.000000	0.000000	1
153.700797	6.315140	0.000000	-0.008596	0.006680	0.000000	0.010887	-1.233442	0.000000	0.000000	0.000000	0.000000	0.000000	1
156.809789	6.315140	0.000000	-0.002807	0.000542	0.000000	0.002859	-0.850074	0.000000	0.000000	0.000000	0.000000	0.000000	1
159.918781	6.315140	0.000000	-0.002304	0.000847	0.000000	0.002455	0.271395	0.000000	0.000000	0.000000	0.000000	0.000000	1
4.469176	9.424132	0.000000	0.000333	0.005926	0.000000	0.005935	0.864584	0.000000	0.000000	0.000000	0.000000	0.000000	1
7.578168	9.424132	0.000000	0.000245	0.009492	0.000000	0.009496	0.067582	0.000000	0.000000	0.000000	0.000000	0.000000	1
10.687160	9.424132	0.000000	-0.000446	0.007985	0.000000	0.007998	-0.590675	0.000000	0.000000	0.000000	0.000000	0.000000	1
13.796152	9.424132	0.000000	0.005166	0.008269	0.000000	0.009750	-0.537540	0.000000	0.000000	0.000000	0.000000	0.000000	1
16.905145	9.424132	0.000000	0.006731	0.008674	0.000000	0.010979	-0.771000	0.000000	0.000000	0.000000	0.000000	0.000000	1
20.014137	9.424132	0.000000	0.002647	0.006525	0.000000	0.007041	-0.249496	0.000000	0.000000	0.000000	0.000000	0.000000	1
23.123129	9.424132	0.000000	0.002823	0.006866	0.000000	0.007424	0.184347	0.000000	0.000000	0.000000	0.000000	0.000000	1
26.232121	9.424132	0.000000	0.002470	0.006337	0.000000	0.006802	-0.228841	0.000000	0.000000	0.000000	0.000000	0.000000	1
29.341113	9.424132	0.000000	0.010591	0.007000	0.000000	0.012695	-0.815286	0.000000	0.000000	0.000000	0.000000	0.000000	1
32.450105	9.424132	0.000000	0.007819	0.005492	0.000000	0.009555	-1.355443	0.000000	0.000000	0.000000	0.000000	0.000000	1
35.559097	9.424132	0.000000	0.005255	0.004597	0.000000	0.006982	-1.929833	0.000000	0.000000	0.000000	0.000000	0.000000	1
38.668089	9.424132	0.000000	0.005839	-0.001039	0.000000	0.005931	-1.206937	0.000000	0.000000	0.000000	0.000000	0.000000	1
41.777081	9.424132	0.000000	0.007426	-0.000733	0.000000	0.007462	1.818698	0.000000	0.000000	0.000000	0.000000	0.000000	1
44.886073	9.424132	0.000000	0.021011	0.011922	0.000000	0.024158	2.628288	0.000000	0.000000	0.000000	0.000000	0.000000	1
47.995066	9.424132	0.000000	0.017200	0.023240	0.000000	0.028913	8.868172	0.000000	0.000000	0.000000	0.000000	0.000000	1
51.104058	9.424132	0.000000	-0.000029	0.034494	0.000000	0.034494	41.896826	0.000000	0.000000	0.000000	0.000000	0.000000	1
54.213050	9.424132	0.000000	-0.106949	0.179333	0.000000	0.208802	97.420934	0.000000	0.000000	0.000000	0.000000	0.000000	2
57.322042	9.424132	0.000000	-0.232285	0.321887	0.000000	0.396948	125.044569	0.000000	0.000000	0.000000	0.000000	0.000000	1
60.431034	9.424132	0.000000	-0.327713	0.411753	0.000000	0.526247	92.690977	0.000000	0.000000	0.000000	0.000000	0.000000	1
63.540026	9.424132	0.000000	-0.409481	0.513506	0.000000	0.656782	42.392643	0.000000	0.000000	0.000000	0.000000	0.000000	2
66.649018	9.424132	0.000000	-0.501749	0.708249	0.000000	0.867968	-12.977306	0.000000	0.000000	0.000000	0.000000	0.000000	1
69.758010	9.424132	0.000000	-0.628783	0.580617	0.000000	0.855853	-36.182351	0.000000	0.000000	0.000000	0.000000	0.000000	1
72.867002	9.424132	0.000000	-0.562184	0.600716	0.000000	0.822746	-9.062367	0.000000	0.000000	0.000000	0.000000	0.000000	1
75.975994	9.424132	0.000000	-0.190580	0.700238	0.000000	0.725709	-30.210541	0.000000	0.000000	0.000000	0.000000	0.000000	1
79.084987	9.424132	0.000000	-0.249479	0.490301	0.000000	0.550123	-132.671702	0.000000	0.000000	0.000000	0.000000	0.000000	2
82.193979	9.424132	0.000000	-0.124927	0.000245	0.000000	0.124927	-116.734336	0.000000	0.000000	0.000000	0.000000	0.000000	2
85.302971	9.424132	0.000000	0.007648	-0.004043	0.000000	0.008651	-22.520849	0.000000	0.000000	0.000000	0.000000	0.000000	2
88.411963	9.424132	0.000000	0.011665	-0.008522	0.000000	0.014447	-7.990096	0.000000	0.000000	0.000000	0.000000	0.000000	1
91.520955	9.424132	0.000000	0.002861	0.003395	0.000000	0.004439	-6.184966	0.000000	0.000000	0.000000	0.000000	0.000000	1
94.629947	9.424132	0.000000	-0.000841	0.004917	0.000000	0.004988	-5.454197	0.000000	0.000000	0.000000	0.000000	0.000000	1
97.738939	9.424132	0.000000	-0.002729	0.007266	0.000000	0.007761	-3.117216	0.000000	0.000000	0.000000	0.000000	0.000000	1
100.847931	9.424132	0.000000	-0.017650	0.020978	0.000000	0.027415	-1.432064	0.000000	0.000000	0.000000	0.000000	0.000000	1
103.956923	9.424132	0.000000	-0.019085	0.021623	0.000000	0.028841	1.213782	0.000000	0.000000	0.000000	0.000000	0.000000	1
107.065915	9.424132	0.000000	-0.011105	0.012708	0.000000	0.016877	1.793203	0.000000	0.000000	0.000000	0.000000	0.000000	1
110.174908	9.424132	0.000000	-0.006053	0.003981	0.000000	0.007245	0.718555	0.000000	0.000000	0.000000	0.000000	0.000000	1
113.283900	9.424132	0.000000	-0.001947	0.001953	0.000000	0.002758	1.131021	0.000000	0.000000	0.000000	0.000000	0.000000	1
116.392892	9.424132	0.000000	-0.002174	0.000811	0.000000	0.002320	0.590850	0.000000	0.000000	0.000000	0.000000	0.000000	1
119.501884	9.424132	0.000000	-0.005909	-0.000701	0.000000	0.005951	0.219848	0.000000	0.000000	0.000000	0.000000	0.000000	1
122.610876	9.424132	0.000000	-0.005155	0.001811	0.000000	0.005464	0.324594	0.000000	0.000000	0.000000	0.000000	0.000000	1
125.719868	9.424132	0.000000	-0.005191	-0.000209	0.000000	0.005195	0.321784	0.000000	0.000000	0.000000	0.000000	0.000000	1
128.828860	9.424132	0.000000	-0.005043	0.000912	0.000000	0.005125	0.783529	0.000000	0.000000	0.000000	0.000000	0.000000	1
131.937852	9.424132	0.000000	-0.004004	0.005502	0.000000	0.006804	0.527470	0.000000	0.000000	0.000000	0.000000	0.000000	1
135.046844	9.424132	0.000000	-0.005578	0.006164	0.000000	0.008313	0.916852	0.000000	0.000000	0.000000	0.000000	0.000000	1
138.155836	9.424132	0.000000	-0.008679	0.011151	0.000000	0.014130	0.616428	0.000000	0.000000	0.000000	0.000000	0.000000	1
141.264829	9.424132	0.000000	-0.006843	0.008214	0.000000	0.010691	-0.599951	0.000000	0.000000	0.000000	0.000000	0.000000	1
144.373821	9.424132	0.000000	-0.004790	0.003972	0.000000	0.006222	0.796243	0.000000	0.000000	0.000000	0.000000	0.000000	1
147.482813	9.424132	0.000000	-0.006206	0.008154	0.000000	0.010247	1.697293	0.000000	0.000000	0.000000	0.000000	0.000000	1
150.591805	9.424132	0.000000	-0.007842	0.008332	0.000000	0.011442	-0.222089	0.000000	0.000000	0.000000	0.000000	0.000000	1
153.700797	9.424132	0.000000	-0.008341	0.004341	0.000000	0.009403	-1.600149	0.000000	0.000000	0.000000	0.000000	0.000000	1
156.809789	9.424132	0.000000	-0.002750	-0.000337	0.000000	0.002770	-0.624587	0.000000	0.000000	0.000000	0.000000	0.000000	1
159.918781	9.424132	0.000000	-0.001958	-0.001305	0.000000	0.002353	0.375628	0.000000	0.000000	0.000000	0.000000	0.000000	1
4.469176	12.533124	0.000000	-0.001229	0.006693	0.000000	0.006805	1.717877	0.000000	0.000000	0.000000	0.000000	0.000000	1
7.578168	12.533124	0.000000	0.000252	0.010115	0.000000	0.010119	0.187117	0.000000	0.000000	0.000000	0.000000	0.000000	1
10.687160	12.533124	0.000000	0.000505	0.006829	0.000000	0.006848	-0.706063	0.000000	0.000000	0.000000	0.000000	0.000000	1
13.796152	12.533124	0.000000	0.006401	0.007346	0.000000	0.009744	0.452650	0.000000	0.000000	0.000000	0.000000	0.000000	1
16.905145	12.533124	0.000000	0.006954	0.008683	0.000000	0.011124	0.525185	0.000000	0.000000	0.000000	0.000000	0.000000	1
20.014137	12.533124	0.000000	0.001748	0.005054	0.000000	0.005348	0.628591	0.000000	0.000000	0.000000	0.000000	0.000000	1
23.123129	12.533124	0.000000	0.001530	0.007315	0.000000	0.007474	0.686207	0.000000	0.000000	0.000000	0.000000	0.000000	1
26.232121	12.533124	0.000000	0.002299	0.005681	0.000000	0.006129	0.385807	0.000000	0.000000	0.000000	0.000000	0.000000	1
29.341113	12.533124	0.000000	0.009339	0.005968	0.000000	0.011083	0.894809	0.000000	0.000000	0.000000	0.000000	0.000000	1
32.450105	12.533124	0.000000	0.008136	0.004581	0.000000	0.009337	0.999505	0.000000	0.000000	0.000000	0.000000	0.000000	1
35.559097	12.533124	0.000000	0.005804	0.003603	0.000000	0.006832	-0.015480	0.000000	0.000000	0.000000	0.000000	0.000000	1
38.668089	12.533124	0.000000	0.003512	-0.000840	0.000000	0.003611	-0.053992	0.000000	0.000000	0.000000	0.000000	0.000000	1
41.777081	12.533124	0.000000	0.004212	-0.001165	0.000000	0.004370	6.045159	0.000000	0.000000	0.000000	0.000000	0.000000	1
44.886073	12.533124	0.000000	0.015148	0.024002	0.000000	0.028382	16.365161	0.000000	0.000000	0.000000	0.000000	0.000000	2
47.995066	12.533124	0.000000	0.020818	0.030890	0.000000	0.037250	41.568386	0.000000	0.000000	0.000000	0.000000	0.000000	1
51.104058	12.533124	0.000000	-0.076252	0.130818	0.000000	0.151419	89.637565	0.000000	0.000000	0.000000	0.000000	0.000000	2
54.213050	12.533124	0.000000	-0.309812	0.292602	0.000000	0.426144	121.532039	0.000000	0.000000	0.000000	0.000000	0.000000	2
57.322042	12.533124	0.000000	-0.657732	0.489339	0.000000	0.819795	103.298395	0.000000	0.000000	0.000000	0.000000	0.000000	1
60.431034	12.533124	0.000000	-0.682083	0.557452	0.000000	0.880904	56.915647	0.000000	0.000000	0.000000	0.000000	0.000000	1
63.540026	12.533124	0.000000	-0.509987	0.571314	0.000000	0.765824	22.479889	0.000000	0.000000	0.000000	0.000000	0.000000	1
66.649018	12.533124	0.000000	-0.547109	0.619406	0.000000	0.826433	-22.924670	0.000000	0.000000	0.000000	0.000000	0.000000	1
69.758010	12.533124	0.000000	-0.602176	0.544172	0.000000	0.811628	-61.993219	0.000000	0.000000	0.000000	0.000000	0.000000	1
72.867002	12.533124	0.000000	-0.368811	0.480964	0.000000	0.606092	-63.538297	0.000000	0.000000	0.000000	0.000000	0.000000	2
75.975994	12.533124	0.000000	-0.289894	0.329509	0.000000	0.438879	-73.146550	0.000000	0.000000	0.000000	0.000000	0.000000	1
79.084987	12.533124	0.000000	-0.127816	0.144438	0.000000	0.192871	-87.760721	0.000000	0.000000	0.000000	0.000000	0.000000	2
82.193979	12.533124	0.000000	0.010849	0.025371	0.000000	0.027593	-52.159771	0.000000	0.000000	0.000000	0.000000	0.000000	1
85.302971	12.533124	0.000000	0.000166	0.006128	0.000000	0.006130	-5.607475	0.000000	0.000000	0.000000	0.000000	0.000000	1
88.411963	12.533124	0.000000	0.007976	-0.003853	0.000000	0.008858	2.109810	0.000000	0.000000	0.000000	0.000000	0.000000	1
91.520955	12.533124	0.000000	0.001556	0.001605	0.000000	0.002235	-0.060210	0.000000	0.000000	0.000000	0.000000	0.000000	1
94.629947	12.533124	0.000000	0.008829	0.019420	0.000000	0.021333	1.147005	0.000000	0.000000	0.000000	0.000000	0.000000	1
97.738939	12.533124	0.000000	0.015981	0.058322	0.000000	0.060472	0.033357	0.000000	0.000000	0.000000	0.000000	0.000000	1
100.847931	12.533124	0.000000	-0.002842	0.043599	0.000000	0.043692	-4.759609	0.000000	0.000000	0.000000	0.000000	0.000000	1
103.956923	12.533124	0.000000	-0.016303	0.025813	0.000000	0.030530	-2.490926	0.000000	0.000000	0.000000	0.000000	0.000000	1
107.065915	12.533124	0.000000	-0.031040	0.046817	0.000000	0.056173	-1.474767	0.000000	0.000000	0.000000	0.000000	0.000000	1
110.174908	12.533124	0.000000	-0.028681	0.025004	0.000000	0.038050	-1.959613	0.000000	0.000000	0.000000	0.000000	0.000000	1
113.283900	12.533124	0.000000	-0.020120	0.007353	0.000000	0.021422	1.317026	0.000000	0.000000	0.000000	0.000000	0.000000	1
116.392892	12.533124	0.000000	-0.010159	0.005015	0.000000	0.011329	0.297022	0.000000	0.000000	0.000000	0.000000	0.000000	1
119.501884	12.533124	0.000000	-0.003156	0.004552	0.000000	0.005539	-1.543799	0.000000	0.000000	0.000000	0.000000	0.000000	1
122.610876	12.533124	0.000000	-0.004096	0.008992	0.000000	0.009881	-0.349488	0.000000	0.000000	0.000000	0.000000	0.000000	1
125.719868	12.533124	0.000000	-0.009471	0.010019	0.000000	0.013786	-3.259290	0.000000	0.000000	0.000000	0.000000	0.000000	1
128.828860	12.533124	0.000000	-0.006174	0.006010	0.000000	0.008616	-3.637737	0.000000	0.000000	0.000000	0.000000	0.000000	1
131.937852	12.533124	0.000000	-0.001143	0.003387	0.000000	0.003575	1.698723	0.000000	0.000000	0.000000	0.000000	0.000000	1
135.046844	12.533124	0.000000	-0.006592	0.011093	0.000000	0.012904	4.424358	0.000000	0.000000	0.000000	0.000000	0.000000	1
138.155836	12.533124	0.000000	-0.014986	0.019880	0.000000	0.024896	2.303675	0.000000	0.000000	0.000000	0.000000	0.000000	1
141.264829	12.533124	0.000000	-0.010282	0.015373	0.000000	0.018494	-0.440062	0.000000	0.000000	0.000000	0.000000	0.000000	1
144.373821	12.533124	0.000000	-0.008248	0.011945	0.000000	0.014516	0.196585	0.000000	0.000000	0.000000	0.000000	0.000000	1
147.482813	12.533124	0.000000	-0.017592	0.008911	0.000000	0.019720	1.714836	0.000000	0.000000	0.000000	0.000000	0.000000	1
150.591805	12.533124	0.000000	-0.005456	0.011970	0.000000	0.013154	0.785300	0.000000	0.000000	0.000000	0.000000	0.000000	1
153.700797	12.533124	0.000000	-0.007576	0.006232	0.000000	0.009810	-0.884531	0.000000	0.000000	0.000000	0.000000	0.000000	1
156.809789	12.533124	0.000000	-0.004323	0.001025	0.000000	0.004442	0.062221	0.000000	0.000000	0.000000	0.000000	0.000000	1
159.918781	12.533124	0.000000	-0.007277	0.000838	0.000000	0.007325	1.086714	0.000000	0.000000	0.000000	0.000000	0.000000	1
4.469176	15.642117	0.000000	-0.003134	0.009097	0.000000	0.009621	1.064291	0.000000	0.000000	0.000000	0.000000	0.000000	1
7.578168	15.642117	0.000000	-0.001851	0.014485	0.000000	0.014603	-0.431167	0.000000	0.000000	0.000000	0.000000	0.000000	1
10.687160	15.642117	0.000000	0.001796	0.006001	0.000000	0.006264	-0.802240	0.000000	0.000000	0.000000	0.000000	0.000000	1
13.796152	15.642117	0.000000	0.002179	0.003087	0.000000	0.003778	0.699501	0.000000	0.000000	0.000000	0.000000	0.000000	1
16.905145	15.642117	0.000000	-0.000139	0.002259	0.000000	0.002264	0.670600	0.000000	0.000000	0.000000	0.000000	0.000000	1
20.014137	15.642117	0.000000	0.000578	0.003680	0.000000	0.003725	0.833381	0.000000	0.000000	0.000000	0.000000	0.000000	1
23.123129	15.642117	0.000000	-0.001125	0.007480	0.000000	0.007564	0.728446	0.000000	0.000000	0.000000	0.000000	0.000000	1
26.232121	15.642117	0.000000	-0.000355	0.006890	0.000000	0.006899	-0.582094	0.000000	0.000000	0.000000	0.000000	0.000000	1
29.341113	15.642117	0.000000	-0.002150	-0.002702	0.000000	0.003453	-0.171993	0.000000	0.000000	0.000000	0.000000	0.000000	1
32.450105	15.642117	0.000000	0.000153	-0.003782	0.000000	0.003785	1.113575	0.000000	0.000000	0.000000	0.000000	0.000000	1
35.559097	15.642117	0.000000	0.003112	-0.000925	0.000000	0.003247	0.015982	0.000000	0.000000	0.000000	0.000000	0.000000	1
38.668089	15.642117	0.000000	0.000950	-0.003635	0.000000	0.003757	0.547397	0.000000	0.000000	0.000000	0.000000	0.000000	1
41.777081	15.642117	0.000000	-0.003380	-0.010130	0.000000	0.010679	14.504848	0.000000	0.000000	0.000000	0.000000	0.000000	1
44.886073	15.642117	0.000000	-0.018653	0.017909	0.000000	0.025858	49.693673	0.000000	0.000000	0.000000	0.000000	0.000000	2
47.995066	15.642117	0.000000	-0.094695	0.106793	0.000000	0.142730	78.168659	0.000000	0.000000	0.000000	0.000000	0.000000	2
51.104058	15.642117	0.000000	-0.249898	0.302271	0.000000	0.392195	97.620904	0.000000	0.000000	0.000000	0.000000	0.000000	1
54.213050	15.642117	0.000000	-0.626566	0.525491	0.000000	0.817757	81.153484	0.000000	0.000000	0.000000	0.000000	0.000000	1
57.322042	15.642117	0.000000	-0.690403	0.573361	0.000000	0.897440	8.813604	0.000000	0.000000	0.000000	0.000000	0.000000	1
60.431034	15.642117	0.000000	-0.666171	0.558297	0.000000	0.869183	-43.659150	0.000000	0.000000	0.000000	0.000000	0.000000	1
63.540026	15.642117	0.000000	-0.478411	0.429432	0.000000	0.642875	-55.071342	0.000000	0.000000	0.000000	0.000000	0.000000	1
66.649018	15.642117	0.000000	-0.433667	0.288776	0.000000	0.521017	-60.527900	0.000000	0.000000	0.000000	0.000000	0.000000	1
69.758010	15.642117	0.000000	-0.267623	0.274815	0.000000	0.383595	-63.594350	0.000000	0.000000	0.000000	0.000000	0.000000	1
72.867002	15.642117	0.000000	-0.230757	0.253126	0.000000	0.342522	-68.172614	0.000000	0.000000	0.000000	0.000000	0.000000	1
75.975994	15.642117	0.000000	-0.067942	0.150849	0.000000	0.165444	-69.044497	0.000000	0.000000	0.000000	0.000000	0.000000	2
79.084987	15.642117	0.000000	0.009290	0.052764	0.000000	0.053576	-43.297304	0.000000	0.000000	0.000000	0.000000	0.000000	1
82.193979	15.642117	0.000000	0.009604	0.051040	0.000000	0.051936	-14.219026	0.000000	0.000000	0.000000	0.000000	0.000000	1
85.302971	15.642117	0.000000	-0.013668	0.032925	0.000000	0.035649	0.095919	0.000000	0.000000	0.000000	0.000000	0.000000	1
88.411963	15.642117	0.000000	-0.007011	0.052007	0.000000	0.052477	2.830294	0.000000	0.000000	0.000000	0.000000	0.000000	1
91.520955	15.642117	0.000000	0.025316	0.050793	0.000000	0.056752	-3.291615	0.000000	0.000000	0.000000	0.000000	0.000000	1
94.629947	15.642117	0.000000	0.034723	0.052322	0.000000	0.062795	-1.316440	0.000000	0.000000	0.000000	0.000000	0.000000	1
97.738939	15.642117	0.000000	0.011517	0.069844	0.000000	0.070788	2.438392	0.000000	0.000000	0.000000	0.000000	0.000000	1
100.847931	15.642117	0.000000	-0.002122	0.068315	0.000000	0.068348	-2.130302	0.000000	0.000000	0.000000	0.000000	0.000000	1
103.956923	15.642117	0.000000	-0.006563	0.059949	0.000000	0.060307	-6.226138	0.000000	0.000000	0.000000	0.000000	0.000000	1
107.065915	15.642117	0.000000	-0.017425	0.042447	0.000000	0.045884	-9.574982	0.000000	0.000000	0.000000	0.000000	0.000000	1
110.174908	15.642117	0.000000	-0.023224	0.025241	0.000000	0.034299	-9.375032	0.000000	0.000000	0.000000	0.000000	0.000000	1
113.283900	15.642117	0.000000	-0.022713	0.021962	0.000000	0.031595	-3.754474	0.000000	0.000000	0.000000	0.000000	0.000000	1
116.392892	15.642117	0.000000	-0.009083	0.035534	0.000000	0.036676	-0.094849	0.000000	0.000000	0.000000	0.000000	0.000000	1
119.501884	15.642117	0.000000	0.013244	0.022177	0.000000	0.025830	0.420371	0.000000	0.000000	0.000000	0.000000	0.000000	1