TITLE = "PIV Result  237 "
VARIABLES = "X (mm)""Y (mm)""Z (mm)""U (m/s)""V (m/s)""W (m/s)""Speed (m/s)""Vorticity""U-std""V-std""W-std""Speed-std""Vorticity-std""Flag"
ZONE T="ZONE 237 "
I= 51 , J= 16 , K= 1 , F=POINT
DT=(DOUBLE DOUBLE DOUBLE DOUBLE DOUBLE DOUBLE DOUBLE DOUBLE DOUBLE DOUBLE DOUBLE DOUBLE DOUBLE DOUBLE)
4.469176	3.206148	0.000000	0.001818	0.010640	0.000000	0.010794	-0.500971	0.000000	0.000000	0.000000	0.000000	0.000000	1
7.578168	3.206148	0.000000	0.004184	0.009352	0.000000	0.010245	-0.247874	0.000000	0.000000	0.000000	0.000000	0.000000	1
10.687160	3.206148	0.000000	0.003624	0.008996	0.000000	0.009699	0.210771	0.000000	0.000000	0.000000	0.000000	0.000000	1
13.796152	3.206148	0.000000	0.010835	0.012708	0.000000	0.016700	1.135739	0.000000	0.000000	0.000000	0.000000	0.000000	1
16.905145	3.206148	0.000000	0.012695	0.013225	0.000000	0.018332	2.920773	0.000000	0.000000	0.000000	0.000000	0.000000	1
20.014137	3.206148	0.000000	0.020474	0.011249	0.000000	0.023361	4.608698	0.000000	0.000000	0.000000	0.000000	0.000000	1
23.123129	3.206148	0.000000	0.024859	0.012233	0.000000	0.027706	1.562686	0.000000	0.000000	0.000000	0.000000	0.000000	1
26.232121	3.206148	0.000000	0.001469	0.002931	0.000000	0.003278	-1.544243	0.000000	0.000000	0.000000	0.000000	0.000000	1
29.341113	3.206148	0.000000	0.008501	0.019384	0.000000	0.021166	1.238059	0.000000	0.000000	0.000000	0.000000	0.000000	1
32.450105	3.206148	0.000000	0.013506	0.026691	0.000000	0.029913	0.820676	0.000000	0.000000	0.000000	0.000000	0.000000	1
35.559097	3.206148	0.000000	0.005065	0.001850	0.000000	0.005392	-2.310356	0.000000	0.000000	0.000000	0.000000	0.000000	1
38.668089	3.206148	0.000000	0.000257	0.001331	0.000000	0.001356	-4.924870	0.000000	0.000000	0.000000	0.000000	0.000000	1
41.777081	3.206148	0.000000	-0.001255	0.000801	0.000000	0.001489	-4.782195	0.000000	0.000000	0.000000	0.000000	0.000000	1
44.886073	3.206148	0.000000	-0.000176	0.000910	0.000000	0.000927	-2.475915	0.000000	0.000000	0.000000	0.000000	0.000000	1
47.995066	3.206148	0.000000	-0.001637	0.000832	0.000000	0.001837	-2.846827	0.000000	0.000000	0.000000	0.000000	0.000000	1
51.104058	3.206148	0.000000	0.000154	0.000972	0.000000	0.000984	-1.335864	0.000000	0.000000	0.000000	0.000000	0.000000	1
54.213050	3.206148	0.000000	0.001027	0.001193	0.000000	0.001574	0.383316	0.000000	0.000000	0.000000	0.000000	0.000000	1
57.322042	3.206148	0.000000	0.001431	-0.000732	0.000000	0.001607	-0.073305	0.000000	0.000000	0.000000	0.000000	0.000000	1
60.431034	3.206148	0.000000	-0.007203	-0.002584	0.000000	0.007653	2.118173	0.000000	0.000000	0.000000	0.000000	0.000000	1
63.540026	3.206148	0.000000	-0.009484	-0.000354	0.000000	0.009491	7.581392	0.000000	0.000000	0.000000	0.000000	0.000000	1
66.649018	3.206148	0.000000	-0.004424	-0.000170	0.000000	0.004427	8.222795	0.000000	0.000000	0.000000	0.000000	0.000000	1
69.758010	3.206148	0.000000	-0.008832	-0.003663	0.000000	0.009561	3.745067	0.000000	0.000000	0.000000	0.000000	0.000000	1
72.867002	3.206148	0.000000	-0.016133	-0.021224	0.000000	0.026660	1.769582	0.000000	0.000000	0.000000	0.000000	0.000000	1
75.975994	3.206148	0.000000	-0.015164	-0.015940	0.000000	0.022001	1.000376	0.000000	0.000000	0.000000	0.000000	0.000000	1
79.084987	3.206148	0.000000	0.028040	-0.011399	0.000000	0.030268	2.648988	0.000000	0.000000	0.000000	0.000000	0.000000	1
82.193979	3.206148	0.000000	0.033759	0.007966	0.000000	0.034686	19.745035	0.000000	0.000000	0.000000	0.000000	0.000000	1
85.302971	3.206148	0.000000	0.098193	0.098216	0.000000	0.138882	30.515193	0.000000	0.000000	0.000000	0.000000	0.000000	2
88.411963	3.206148	0.000000	0.190557	0.178466	0.000000	0.261078	41.827990	0.000000	0.000000	0.000000	0.000000	0.000000	2
91.520955	3.206148	0.000000	0.358340	0.424016	0.000000	0.555155	65.274421	0.000000	0.000000	0.000000	0.000000	0.000000	2
94.629947	3.206148	0.000000	0.440743	0.541547	0.000000	0.698232	32.656560	0.000000	0.000000	0.000000	0.000000	0.000000	2
97.738939	3.206148	0.000000	0.481945	0.418841	0.000000	0.638513	-56.924955	0.000000	0.000000	0.000000	0.000000	0.000000	2
100.847931	3.206148	0.000000	0.502546	0.207298	0.000000	0.543622	-58.916108	0.000000	0.000000	0.000000	0.000000	0.000000	2
103.956923	3.206148	0.000000	0.514731	0.162879	0.000000	0.539887	-40.536399	0.000000	0.000000	0.000000	0.000000	0.000000	2
107.065915	3.206148	0.000000	0.257686	0.059821	0.000000	0.264538	-69.588823	0.000000	0.000000	0.000000	0.000000	0.000000	2
110.174908	3.206148	0.000000	-0.000056	0.000690	0.000000	0.000692	-33.740152	0.000000	0.000000	0.000000	0.000000	0.000000	1
113.283900	3.206148	0.000000	-0.002119	0.002349	0.000000	0.003164	1.873376	0.000000	0.000000	0.000000	0.000000	0.000000	1
116.392892	3.206148	0.000000	-0.000828	0.001740	0.000000	0.001927	0.768899	0.000000	0.000000	0.000000	0.000000	0.000000	1
119.501884	3.206148	0.000000	-0.000686	0.001566	0.000000	0.001710	0.676355	0.000000	0.000000	0.000000	0.000000	0.000000	1
122.610876	3.206148	0.000000	0.004378	0.001230	0.000000	0.004548	-0.045972	0.000000	0.000000	0.000000	0.000000	0.000000	1
125.719868	3.206148	0.000000	0.000360	0.000199	0.000000	0.000411	-1.623692	0.000000	0.000000	0.000000	0.000000	0.000000	1
128.828860	3.206148	0.000000	0.000656	-0.000360	0.000000	0.000748	-1.265338	0.000000	0.000000	0.000000	0.000000	0.000000	1
131.937852	3.206148	0.000000	0.000876	-0.000576	0.000000	0.001048	0.910367	0.000000	0.000000	0.000000	0.000000	0.000000	1
135.046844	3.206148	0.000000	-0.001359	0.004566	0.000000	0.004764	1.160967	0.000000	0.000000	0.000000	0.000000	0.000000	1
138.155836	3.206148	0.000000	-0.001285	0.004375	0.000000	0.004559	1.656419	0.000000	0.000000	0.000000	0.000000	0.000000	1
141.264829	3.206148	0.000000	-0.001582	0.005758	0.000000	0.005972	2.868400	0.000000	0.000000	0.000000	0.000000	0.000000	1
144.373821	3.206148	0.000000	-0.000998	0.003860	0.000000	0.003987	2.531509	0.000000	0.000000	0.000000	0.000000	0.000000	1
147.482813	3.206148	0.000000	-0.002607	0.004303	0.000000	0.005031	1.383435	0.000000	0.000000	0.000000	0.000000	0.000000	1
150.591805	3.206148	0.000000	-0.010557	0.010027	0.000000	0.014560	-0.643402	0.000000	0.000000	0.000000	0.000000	0.000000	1
153.700797	3.206148	0.000000	-0.005757	0.005819	0.000000	0.008185	-1.060749	0.000000	0.000000	0.000000	0.000000	0.000000	1
156.809789	3.206148	0.000000	-0.004883	0.004621	0.000000	0.006723	-0.699092	0.000000	0.000000	0.000000	0.000000	0.000000	1
159.918781	3.206148	0.000000	-0.002091	0.001453	0.000000	0.002546	-1.173318	0.000000	0.000000	0.000000	0.000000	0.000000	1
4.469176	6.315140	0.000000	-0.000833	0.010915	0.000000	0.010947	-0.545397	0.000000	0.000000	0.000000	0.000000	0.000000	1
7.578168	6.315140	0.000000	0.003707	0.005960	0.000000	0.007018	0.005550	0.000000	0.000000	0.000000	0.000000	0.000000	1
10.687160	6.315140	0.000000	0.007182	0.009428	0.000000	0.011852	0.007126	0.000000	0.000000	0.000000	0.000000	0.000000	1
13.796152	6.315140	0.000000	0.006828	0.007857	0.000000	0.010410	0.024275	0.000000	0.000000	0.000000	0.000000	0.000000	1
16.905145	6.315140	0.000000	0.003851	0.006024	0.000000	0.007150	1.536254	0.000000	0.000000	0.000000	0.000000	0.000000	1
20.014137	6.315140	0.000000	0.004414	0.007883	0.000000	0.009035	3.467186	0.000000	0.000000	0.000000	0.000000	0.000000	1
23.123129	6.315140	0.000000	0.015873	0.014381	0.000000	0.021419	2.380974	0.000000	0.000000	0.000000	0.000000	0.000000	1
26.232121	6.315140	0.000000	0.017551	0.017686	0.000000	0.024916	-0.676567	0.000000	0.000000	0.000000	0.000000	0.000000	1
29.341113	6.315140	0.000000	0.004263	0.006965	0.000000	0.008166	0.144305	0.000000	0.000000	0.000000	0.000000	0.000000	1
32.450105	6.315140	0.000000	0.003438	0.006861	0.000000	0.007674	0.879626	0.000000	0.000000	0.000000	0.000000	0.000000	1
35.559097	6.315140	0.000000	0.006736	0.012002	0.000000	0.013763	-0.599310	0.000000	0.000000	0.000000	0.000000	0.000000	1
38.668089	6.315140	0.000000	0.013550	0.010055	0.000000	0.016873	-3.143088	0.000000	0.000000	0.000000	0.000000	0.000000	1
41.777081	6.315140	0.000000	0.012554	-0.006129	0.000000	0.013970	-2.630540	0.000000	0.000000	0.000000	0.000000	0.000000	1
44.886073	6.315140	0.000000	0.010042	0.002134	0.000000	0.010267	-0.104517	0.000000	0.000000	0.000000	0.000000	0.000000	1
47.995066	6.315140	0.000000	0.007903	0.006836	0.000000	0.010449	-0.447641	0.000000	0.000000	0.000000	0.000000	0.000000	1
51.104058	6.315140	0.000000	0.003188	-0.000998	0.000000	0.003341	2.948090	0.000000	0.000000	0.000000	0.000000	0.000000	1
54.213050	6.315140	0.000000	0.005641	0.010084	0.000000	0.011555	6.977364	0.000000	0.000000	0.000000	0.000000	0.000000	1
57.322042	6.315140	0.000000	0.000852	0.017157	0.000000	0.017178	2.515498	0.000000	0.000000	0.000000	0.000000	0.000000	1
60.431034	6.315140	0.000000	-0.033124	-0.009514	0.000000	0.034464	-2.756742	0.000000	0.000000	0.000000	0.000000	0.000000	1
63.540026	6.315140	0.000000	-0.039003	-0.038820	0.000000	0.055029	2.101723	0.000000	0.000000	0.000000	0.000000	0.000000	2
66.649018	6.315140	0.000000	-0.027728	-0.025908	0.000000	0.037949	5.070614	0.000000	0.000000	0.000000	0.000000	0.000000	2
69.758010	6.315140	0.000000	-0.034697	-0.035243	0.000000	0.049456	0.413337	0.000000	0.000000	0.000000	0.000000	0.000000	1
72.867002	6.315140	0.000000	-0.021089	-0.038270	0.000000	0.043696	0.324016	0.000000	0.000000	0.000000	0.000000	0.000000	1
75.975994	6.315140	0.000000	0.010413	-0.011159	0.000000	0.015263	2.639040	0.000000	0.000000	0.000000	0.000000	0.000000	1
79.084987	6.315140	0.000000	0.016679	-0.000817	0.000000	0.016699	5.106892	0.000000	0.000000	0.000000	0.000000	0.000000	1
82.193979	6.315140	0.000000	0.032309	-0.000717	0.000000	0.032317	22.818324	0.000000	0.000000	0.000000	0.000000	0.000000	1
85.302971	6.315140	0.000000	0.097846	0.120509	0.000000	0.155230	31.638720	0.000000	0.000000	0.000000	0.000000	0.000000	2
88.411963	6.315140	0.000000	0.155144	0.170714	0.000000	0.230679	27.622158	0.000000	0.000000	0.000000	0.000000	0.000000	2
91.520955	6.315140	0.000000	0.254398	0.139768	0.000000	0.290264	54.306427	0.000000	0.000000	0.000000	0.000000	0.000000	2
94.629947	6.315140	0.000000	0.526122	0.461468	0.000000	0.699827	59.452710	0.000000	0.000000	0.000000	0.000000	0.000000	2
97.738939	6.315140	0.000000	0.523147	0.659078	0.000000	0.841466	-28.722873	0.000000	0.000000	0.000000	0.000000	0.000000	1
100.847931	6.315140	0.000000	0.543100	0.296135	0.000000	0.618590	-61.232641	0.000000	0.000000	0.000000	0.000000	0.000000	1
103.956923	6.315140	0.000000	0.526917	0.316855	0.000000	0.614848	-47.017545	0.000000	0.000000	0.000000	0.000000	0.000000	2
107.065915	6.315140	0.000000	0.433111	0.179852	0.000000	0.468969	-76.607582	0.000000	0.000000	0.000000	0.000000	0.000000	2
110.174908	6.315140	0.000000	0.000640	-0.022630	0.000000	0.022639	-41.276738	0.000000	0.000000	0.000000	0.000000	0.000000	1
113.283900	6.315140	0.000000	-0.003623	-0.006955	0.000000	0.007842	0.970463	0.000000	0.000000	0.000000	0.000000	0.000000	1
116.392892	6.315140	0.000000	-0.002642	-0.004508	0.000000	0.005225	0.476297	0.000000	0.000000	0.000000	0.000000	0.000000	1
119.501884	6.315140	0.000000	-0.000310	-0.001365	0.000000	0.001400	0.270750	0.000000	0.000000	0.000000	0.000000	0.000000	1
122.610876	6.315140	0.000000	0.000896	-0.000130	0.000000	0.000906	0.468288	0.000000	0.000000	0.000000	0.000000	0.000000	1
125.719868	6.315140	0.000000	0.010423	0.002906	0.000000	0.010821	0.481172	0.000000	0.000000	0.000000	0.000000	0.000000	1
128.828860	6.315140	0.000000	0.005279	0.002535	0.000000	0.005856	0.491358	0.000000	0.000000	0.000000	0.000000	0.000000	1
131.937852	6.315140	0.000000	-0.003497	0.002883	0.000000	0.004532	1.303751	0.000000	0.000000	0.000000	0.000000	0.000000	1
135.046844	6.315140	0.000000	-0.002013	0.004155	0.000000	0.004617	1.349347	0.000000	0.000000	0.000000	0.000000	0.000000	1
138.155836	6.315140	0.000000	-0.002465	0.005509	0.000000	0.006035	1.463262	0.000000	0.000000	0.000000	0.000000	0.000000	1
141.264829	6.315140	0.000000	-0.011613	0.010517	0.000000	0.015667	1.767805	0.000000	0.000000	0.000000	0.000000	0.000000	1
144.373821	6.315140	0.000000	-0.010240	0.011211	0.000000	0.015184	1.241851	0.000000	0.000000	0.000000	0.000000	0.000000	1
147.482813	6.315140	0.000000	-0.005895	0.011651	0.000000	0.013057	0.635609	0.000000	0.000000	0.000000	0.000000	0.000000	1
150.591805	6.315140	0.000000	-0.005524	0.011464	0.000000	0.012725	-0.820318	0.000000	0.000000	0.000000	0.000000	0.000000	1
153.700797	6.315140	0.000000	-0.007424	0.007244	0.000000	0.010373	-1.212865	0.000000	0.000000	0.000000	0.000000	0.000000	1
156.809789	6.315140	0.000000	-0.004862	0.005398	0.000000	0.007264	-0.571569	0.000000	0.000000	0.000000	0.000000	0.000000	1
159.918781	6.315140	0.000000	-0.000398	0.002984	0.000000	0.003010	-0.563919	0.000000	0.000000	0.000000	0.000000	0.000000	1
4.469176	9.424132	0.000000	0.001442	0.003741	0.000000	0.004009	-0.209282	0.000000	0.000000	0.000000	0.000000	0.000000	1
7.578168	9.424132	0.000000	0.002614	0.006211	0.000000	0.006739	0.645141	0.000000	0.000000	0.000000	0.000000	0.000000	1
10.687160	9.424132	0.000000	0.009799	0.011154	0.000000	0.014847	0.707899	0.000000	0.000000	0.000000	0.000000	0.000000	1
13.796152	9.424132	0.000000	0.007641	0.006822	0.000000	0.010243	-1.402702	0.000000	0.000000	0.000000	0.000000	0.000000	1
16.905145	9.424132	0.000000	0.004592	0.006020	0.000000	0.007571	-1.819170	0.000000	0.000000	0.000000	0.000000	0.000000	1
20.014137	9.424132	0.000000	-0.000094	0.006470	0.000000	0.006471	1.439193	0.000000	0.000000	0.000000	0.000000	0.000000	1
23.123129	9.424132	0.000000	0.009624	0.012062	0.000000	0.015432	3.749455	0.000000	0.000000	0.000000	0.000000	0.000000	1
26.232121	9.424132	0.000000	0.013329	0.015226	0.000000	0.020236	1.127776	0.000000	0.000000	0.000000	0.000000	0.000000	1
29.341113	9.424132	0.000000	0.002660	0.005559	0.000000	0.006163	-1.053592	0.000000	0.000000	0.000000	0.000000	0.000000	1
32.450105	9.424132	0.000000	0.002904	0.006280	0.000000	0.006919	-0.786251	0.000000	0.000000	0.000000	0.000000	0.000000	1
35.559097	9.424132	0.000000	0.004670	0.007455	0.000000	0.008797	-0.643828	0.000000	0.000000	0.000000	0.000000	0.000000	1
38.668089	9.424132	0.000000	0.007514	0.006209	0.000000	0.009747	-1.194196	0.000000	0.000000	0.000000	0.000000	0.000000	1
41.777081	9.424132	0.000000	0.012601	-0.005434	0.000000	0.013722	0.483194	0.000000	0.000000	0.000000	0.000000	0.000000	1
44.886073	9.424132	0.000000	0.010079	0.002268	0.000000	0.010331	2.241771	0.000000	0.000000	0.000000	0.000000	0.000000	1
47.995066	9.424132	0.000000	0.003272	0.005280	0.000000	0.006212	2.046469	0.000000	0.000000	0.000000	0.000000	0.000000	1
51.104058	9.424132	0.000000	-0.006575	0.010680	0.000000	0.012542	6.909438	0.000000	0.000000	0.000000	0.000000	0.000000	1
54.213050	9.424132	0.000000	-0.031713	0.030458	0.000000	0.043971	10.236506	0.000000	0.000000	0.000000	0.000000	0.000000	2
57.322042	9.424132	0.000000	-0.038926	0.037051	0.000000	0.053740	3.488598	0.000000	0.000000	0.000000	0.000000	0.000000	2
60.431034	9.424132	0.000000	-0.014493	0.015254	0.000000	0.021041	-3.673195	0.000000	0.000000	0.000000	0.000000	0.000000	1
63.540026	9.424132	0.000000	-0.041330	-0.006723	0.000000	0.041873	-1.490560	0.000000	0.000000	0.000000	0.000000	0.000000	2
66.649018	9.424132	0.000000	-0.033809	-0.002463	0.000000	0.033899	0.844681	0.000000	0.000000	0.000000	0.000000	0.000000	2
69.758010	9.424132	0.000000	-0.008523	0.025242	0.000000	0.026642	-2.582068	0.000000	0.000000	0.000000	0.000000	0.000000	1
72.867002	9.424132	0.000000	-0.008804	0.032156	0.000000	0.033339	-2.078014	0.000000	0.000000	0.000000	0.000000	0.000000	1
75.975994	9.424132	0.000000	-0.005920	0.021620	0.000000	0.022416	2.313876	0.000000	0.000000	0.000000	0.000000	0.000000	1
79.084987	9.424132	0.000000	-0.001110	0.009730	0.000000	0.009793	8.171485	0.000000	0.000000	0.000000	0.000000	0.000000	1
82.193979	9.424132	0.000000	0.003190	0.024225	0.000000	0.024434	23.019184	0.000000	0.000000	0.000000	0.000000	0.000000	1
85.302971	9.424132	0.000000	0.048327	0.084847	0.000000	0.097644	28.641662	0.000000	0.000000	0.000000	0.000000	0.000000	1
88.411963	9.424132	0.000000	0.147019	0.123943	0.000000	0.192292	15.808014	0.000000	0.000000	0.000000	0.000000	0.000000	2
91.520955	9.424132	0.000000	0.214297	0.126562	0.000000	0.248880	30.613553	0.000000	0.000000	0.000000	0.000000	0.000000	2
94.629947	9.424132	0.000000	0.484904	0.242599	0.000000	0.542205	77.271760	0.000000	0.000000	0.000000	0.000000	0.000000	2
97.738939	9.424132	0.000000	0.594257	0.628415	0.000000	0.864896	32.942297	0.000000	0.000000	0.000000	0.000000	0.000000	1
100.847931	9.424132	0.000000	0.661790	0.621146	0.000000	0.907627	-27.414523	0.000000	0.000000	0.000000	0.000000	0.000000	1
103.956923	9.424132	0.000000	0.560751	0.522663	0.000000	0.766562	-37.193937	0.000000	0.000000	0.000000	0.000000	0.000000	2
107.065915	9.424132	0.000000	0.489247	0.314613	0.000000	0.581673	-87.405003	0.000000	0.000000	0.000000	0.000000	0.000000	2
110.174908	9.424132	0.000000	0.018611	-0.013753	0.000000	0.023141	-60.207302	0.000000	0.000000	0.000000	0.000000	0.000000	2
113.283900	9.424132	0.000000	-0.000907	-0.010829	0.000000	0.010867	0.913640	0.000000	0.000000	0.000000	0.000000	0.000000	1
116.392892	9.424132	0.000000	0.000378	-0.004612	0.000000	0.004627	2.066635	0.000000	0.000000	0.000000	0.000000	0.000000	1
119.501884	9.424132	0.000000	0.002964	-0.002105	0.000000	0.003636	0.754665	0.000000	0.000000	0.000000	0.000000	0.000000	1
122.610876	9.424132	0.000000	0.001236	-0.000759	0.000000	0.001451	0.561436	0.000000	0.000000	0.000000	0.000000	0.000000	1
125.719868	9.424132	0.000000	0.001251	0.000624	0.000000	0.001398	1.634429	0.000000	0.000000	0.000000	0.000000	0.000000	1
128.828860	9.424132	0.000000	-0.001931	0.003520	0.000000	0.004015	1.497027	0.000000	0.000000	0.000000	0.000000	0.000000	1
131.937852	9.424132	0.000000	-0.003438	0.005071	0.000000	0.006126	1.371606	0.000000	0.000000	0.000000	0.000000	0.000000	1
135.046844	9.424132	0.000000	-0.007595	0.010333	0.000000	0.012824	0.949647	0.000000	0.000000	0.000000	0.000000	0.000000	1
138.155836	9.424132	0.000000	-0.003850	0.009078	0.000000	0.009861	-0.132202	0.000000	0.000000	0.000000	0.000000	0.000000	1
141.264829	9.424132	0.000000	-0.011391	0.011635	0.000000	0.016283	-1.177413	0.000000	0.000000	0.000000	0.000000	0.000000	1
144.373821	9.424132	0.000000	-0.009984	0.010990	0.000000	0.014847	-1.417603	0.000000	0.000000	0.000000	0.000000	0.000000	1
147.482813	9.424132	0.000000	-0.005494	0.011044	0.000000	0.012335	-0.681703	0.000000	0.000000	0.000000	0.000000	0.000000	1
150.591805	9.424132	0.000000	-0.005994	0.009930	0.000000	0.011599	-0.984114	0.000000	0.000000	0.000000	0.000000	0.000000	1
153.700797	9.424132	0.000000	-0.004018	0.005917	0.000000	0.007153	-0.883084	0.000000	0.000000	0.000000	0.000000	0.000000	1
156.809789	9.424132	0.000000	-0.003839	0.006387	0.000000	0.007452	-0.055292	0.000000	0.000000	0.000000	0.000000	0.000000	1
159.918781	9.424132	0.000000	-0.004115	0.006390	0.000000	0.007601	0.157014	0.000000	0.000000	0.000000	0.000000	0.000000	1
4.469176	12.533124	0.000000	0.004786	0.000618	0.000000	0.004826	-0.057769	0.000000	0.000000	0.000000	0.000000	0.000000	1
7.578168	12.533124	0.000000	0.002734	0.002677	0.000000	0.003826	-0.490946	0.000000	0.000000	0.000000	0.000000	0.000000	1
10.687160	12.533124	0.000000	0.002888	0.002703	0.000000	0.003956	0.502008	0.000000	0.000000	0.000000	0.000000	0.000000	1
13.796152	12.533124	0.000000	0.020962	0.021737	0.000000	0.030197	-0.504417	0.000000	0.000000	0.000000	0.000000	0.000000	1
16.905145	12.533124	0.000000	0.011139	0.012749	0.000000	0.016930	-2.780936	0.000000	0.000000	0.000000	0.000000	0.000000	1
20.014137	12.533124	0.000000	0.001984	0.003448	0.000000	0.003978	0.075221	0.000000	0.000000	0.000000	0.000000	0.000000	1
23.123129	12.533124	0.000000	-0.002200	0.012458	0.000000	0.012650	2.440940	0.000000	0.000000	0.000000	0.000000	0.000000	1
26.232121	12.533124	0.000000	0.000055	0.013317	0.000000	0.013317	0.459636	0.000000	0.000000	0.000000	0.000000	0.000000	1
29.341113	12.533124	0.000000	0.008882	0.012484	0.000000	0.015321	-0.765487	0.000000	0.000000	0.000000	0.000000	0.000000	1
32.450105	12.533124	0.000000	0.014083	0.018214	0.000000	0.023024	-1.303277	0.000000	0.000000	0.000000	0.000000	0.000000	1
35.559097	12.533124	0.000000	0.009798	0.013069	0.000000	0.016334	-2.145713	0.000000	0.000000	0.000000	0.000000	0.000000	1
38.668089	12.533124	0.000000	0.004716	0.007086	0.000000	0.008511	-0.336294	0.000000	0.000000	0.000000	0.000000	0.000000	1
41.777081	12.533124	0.000000	0.009098	0.009217	0.000000	0.012951	1.834607	0.000000	0.000000	0.000000	0.000000	0.000000	1
44.886073	12.533124	0.000000	0.005476	0.014595	0.000000	0.015589	0.887631	0.000000	0.000000	0.000000	0.000000	0.000000	1
47.995066	12.533124	0.000000	-0.006269	0.003819	0.000000	0.007341	2.001476	0.000000	0.000000	0.000000	0.000000	0.000000	1
51.104058	12.533124	0.000000	-0.005153	0.010550	0.000000	0.011741	10.216374	0.000000	0.000000	0.000000	0.000000	0.000000	1
54.213050	12.533124	0.000000	-0.022033	0.063538	0.000000	0.067250	13.468323	0.000000	0.000000	0.000000	0.000000	0.000000	1
57.322042	12.533124	0.000000	-0.051947	0.077768	0.000000	0.093522	5.404916	0.000000	0.000000	0.000000	0.000000	0.000000	2
60.431034	12.533124	0.000000	-0.044889	0.055275	0.000000	0.071207	-1.778803	0.000000	0.000000	0.000000	0.000000	0.000000	2
63.540026	12.533124	0.000000	-0.051862	0.040744	0.000000	0.065953	-1.330441	0.000000	0.000000	0.000000	0.000000	0.000000	1
66.649018	12.533124	0.000000	-0.011107	0.049168	0.000000	0.050407	1.213237	0.000000	0.000000	0.000000	0.000000	0.000000	1
69.758010	12.533124	0.000000	-0.001189	0.048137	0.000000	0.048152	-3.273469	0.000000	0.000000	0.000000	0.000000	0.000000	1
72.867002	12.533124	0.000000	-0.007006	0.025791	0.000000	0.026726	-7.447472	0.000000	0.000000	0.000000	0.000000	0.000000	1
75.975994	12.533124	0.000000	-0.008055	0.022818	0.000000	0.024198	-1.413175	0.000000	0.000000	0.000000	0.000000	0.000000	1
79.084987	12.533124	0.000000	-0.016093	0.035116	0.000000	0.038628	8.718149	0.000000	0.000000	0.000000	0.000000	0.000000	1
82.193979	12.533124	0.000000	-0.017760	0.076327	0.000000	0.078366	21.058122	0.000000	0.000000	0.000000	0.000000	0.000000	1
85.302971	12.533124	0.000000	0.006219	0.111551	0.000000	0.111725	20.396327	0.000000	0.000000	0.000000	0.000000	0.000000	1
88.411963	12.533124	0.000000	0.077412	0.106780	0.000000	0.131889	11.572762	0.000000	0.000000	0.000000	0.000000	0.000000	2
91.520955	12.533124	0.000000	0.221611	0.122160	0.000000	0.253050	26.990349	0.000000	0.000000	0.000000	0.000000	0.000000	2
94.629947	12.533124	0.000000	0.526224	0.196928	0.000000	0.561865	83.525373	0.000000	0.000000	0.000000	0.000000	0.000000	2
97.738939	12.533124	0.000000	0.579425	0.544743	0.000000	0.795285	84.931342	0.000000	0.000000	0.000000	0.000000	0.000000	1
100.847931	12.533124	0.000000	0.572488	0.566555	0.000000	0.805436	30.946729	0.000000	0.000000	0.000000	0.000000	0.000000	1
103.956923	12.533124	0.000000	0.566664	0.571417	0.000000	0.804752	-13.105338	0.000000	0.000000	0.000000	0.000000	0.000000	1
107.065915	12.533124	0.000000	0.507713	0.554301	0.000000	0.751679	-105.632654	0.000000	0.000000	0.000000	0.000000	0.000000	1
110.174908	12.533124	0.000000	0.005109	0.003215	0.000000	0.006036	-98.108640	0.000000	0.000000	0.000000	0.000000	0.000000	2
113.283900	12.533124	0.000000	-0.009077	-0.027401	0.000000	0.028865	-12.279514	0.000000	0.000000	0.000000	0.000000	0.000000	1
116.392892	12.533124	0.000000	-0.009191	-0.023453	0.000000	0.025189	3.363852	0.000000	0.000000	0.000000	0.000000	0.000000	1
119.501884	12.533124	0.000000	0.009965	-0.007313	0.000000	0.012360	2.320122	0.000000	0.000000	0.000000	0.000000	0.000000	1
122.610876	12.533124	0.000000	0.002169	-0.001494	0.000000	0.002633	0.104679	0.000000	0.000000	0.000000	0.000000	0.000000	1
125.719868	12.533124	0.000000	0.001195	0.000512	0.000000	0.001300	0.289961	0.000000	0.000000	0.000000	0.000000	0.000000	1
128.828860	12.533124	0.000000	-0.001870	0.003601	0.000000	0.004058	0.640964	0.000000	0.000000	0.000000	0.000000	0.000000	1
131.937852	12.533124	0.000000	-0.003535	0.005311	0.000000	0.006380	0.534839	0.000000	0.000000	0.000000	0.000000	0.000000	1
135.046844	12.533124	0.000000	-0.006255	0.011002	0.000000	0.012656	-0.234670	0.000000	0.000000	0.000000	0.000000	0.000000	1
138.155836	12.533124	0.000000	-0.002799	0.009434	0.000000	0.009841	-0.843547	0.000000	0.000000	0.000000	0.000000	0.000000	1
141.264829	12.533124	0.000000	0.002021	0.007471	0.000000	0.007739	-0.830978	0.000000	0.000000	0.000000	0.000000	0.000000	1
144.373821	12.533124	0.000000	-0.001907	0.005891	0.000000	0.006192	-0.730731	0.000000	0.000000	0.000000	0.000000	0.000000	1
147.482813	12.533124	0.000000	-0.003176	0.005281	0.000000	0.006163	-0.326153	0.000000	0.000000	0.000000	0.000000	0.000000	1
150.591805	12.533124	0.000000	-0.005574	0.004524	0.000000	0.007179	0.082686	0.000000	0.000000	0.000000	0.000000	0.000000	1
153.700797	12.533124	0.000000	-0.001855	0.003654	0.000000	0.004098	1.173550	0.000000	0.000000	0.000000	0.000000	0.000000	1
156.809789	12.533124	0.000000	-0.004806	0.006857	0.000000	0.008373	1.566566	0.000000	0.000000	0.000000	0.000000	0.000000	1
159.918781	12.533124	0.000000	-0.004677	0.006994	0.000000	0.008414	1.151489	0.000000	0.000000	0.000000	0.000000	0.000000	1
4.469176	15.642117	0.000000	0.010656	0.000021	0.000000	0.010656	2.037508	0.000000	0.000000	0.000000	0.000000	0.000000	1
7.578168	15.642117	0.000000	0.015496	0.014811	0.000000	0.021436	0.241013	0.000000	0.000000	0.000000	0.000000	0.000000	1
10.687160	15.642117	0.000000	0.014994	0.016400	0.000000	0.022221	0.411175	0.000000	0.000000	0.000000	0.000000	0.000000	1
13.796152	15.642117	0.000000	0.013984	0.018183	0.000000	0.022939	1.224709	0.000000	0.000000	0.000000	0.000000	0.000000	1
16.905145	15.642117	0.000000	0.009982	0.012171	0.000000	0.015741	-1.514623	0.000000	0.000000	0.000000	0.000000	0.000000	1
20.014137	15.642117	0.000000	0.004512	0.007677	0.000000	0.008904	-1.129333	0.000000	0.000000	0.000000	0.000000	0.000000	1
23.123129	15.642117	0.000000	0.000235	0.013796	0.000000	0.013798	-0.300200	0.000000	0.000000	0.000000	0.000000	0.000000	1
26.232121	15.642117	0.000000	0.002144	0.014537	0.000000	0.014694	-2.157643	0.000000	0.000000	0.000000	0.000000	0.000000	1
29.341113	15.642117	0.000000	0.012937	0.010197	0.000000	0.016473	-0.852678	0.000000	0.000000	0.000000	0.000000	0.000000	1
32.450105	15.642117	0.000000	0.014994	0.016108	0.000000	0.022006	1.092507	0.000000	0.000000	0.000000	0.000000	0.000000	1
35.559097	15.642117	0.000000	0.012118	0.016621	0.000000	0.020569	-0.828573	0.000000	0.000000	0.000000	0.000000	0.000000	1
38.668089	15.642117	0.000000	0.005962	0.010503	0.000000	0.012077	0.492802	0.000000	0.000000	0.000000	0.000000	0.000000	1
41.777081	15.642117	0.000000	0.007119	0.027714	0.000000	0.028614	2.917428	0.000000	0.000000	0.000000	0.000000	0.000000	1
44.886073	15.642117	0.000000	0.005932	0.028394	0.000000	0.029007	3.585399	0.000000	0.000000	0.000000	0.000000	0.000000	1
47.995066	15.642117	0.000000	-0.005705	0.027120	0.000000	0.027713	8.117627	0.000000	0.000000	0.000000	0.000000	0.000000	1
51.104058	15.642117	0.000000	-0.008937	0.053391	0.000000	0.054133	16.787451	0.000000	0.000000	0.000000	0.000000	0.000000	2
54.213050	15.642117	0.000000	-0.071845	0.082774	0.000000	0.109604	16.248320	0.000000	0.000000	0.000000	0.000000	0.000000	2
57.322042	15.642117	0.000000	-0.099560	0.084308	0.000000	0.130461	6.597032	0.000000	0.000000	0.000000	0.000000	0.000000	2
60.431034	15.642117	0.000000	-0.039391	0.062637	0.000000	0.073994	2.735699	0.000000	0.000000	0.000000	0.000000	0.000000	2
63.540026	15.642117	0.000000	-0.041476	0.047313	0.000000	0.062918	5.795378	0.000000	0.000000	0.000000	0.000000	0.000000	1
66.649018	15.642117	0.000000	-0.021822	0.046275	0.000000	0.051162	9.324493	0.000000	0.000000	0.000000	0.000000	0.000000	1
69.758010	15.642117	0.000000	0.004939	0.068028	0.000000	0.068207	0.071932	0.000000	0.000000	0.000000	0.000000	0.000000	1
72.867002	15.642117	0.000000	0.011250	0.035958	0.000000	0.037677	-7.084227	0.000000	0.000000	0.000000	0.000000	0.000000	1
75.975994	15.642117	0.000000	0.022641	0.019186	0.000000	0.029677	2.663836	0.000000	0.000000	0.000000	0.000000	0.000000	1
79.084987	15.642117	0.000000	0.010560	0.093434	0.000000	0.094028	16.548700	0.000000	0.000000	0.000000	0.000000	0.000000	2
82.193979	15.642117	0.000000	0.000229	0.175341	0.000000	0.175341	26.298765	0.000000	0.000000	0.000000	0.000000	0.000000	2
85.302971	15.642117	0.000000	-0.003771	0.342852	0.000000	0.342873	5.781612	0.000000	0.000000	0.000000	0.000000	0.000000	2
88.411963	15.642117	0.000000	0.011558	0.279396	0.000000	0.279635	-8.616081	0.000000	0.000000	0.000000	0.000000	0.000000	2
91.520955	15.642117	0.000000	0.168299	0.198739	0.000000	0.260426	13.995052	0.000000	0.000000	0.000000	0.000000	0.000000	2
94.629947	15.642117	0.000000	0.282237	0.221623	0.000000	0.358852	51.493401	0.000000	0.000000	0.000000	0.000000	0.000000	1
97.738939	15.642117	0.000000	0.404986	0.288562	0.000000	0.497275	66.530408	0.000000	0.000000	0.000000	0.000000	0.000000	1
100.847931	15.642117	0.000000	0.447802	0.421040	0.000000	0.614656	38.105830	0.000000	0.000000	0.000000	0.000000	0.000000	1
103.956923	15.642117	0.000000	0.583484	0.516160	0.000000	0.779022	0.487323	0.000000	0.000000	0.000000	0.000000	0.000000	1
107.065915	15.642117	0.000000	0.708306	0.476664	0.000000	0.853760	-72.250684	0.000000	0.000000	0.000000	0.000000	0.000000	1
110.174908	15.642117	0.000000	0.134859	0.138785	0.000000	0.193516	-92.462035	0.000000	0.000000	0.000000	0.000000	0.000000	2
113.283900	15.642117	0.000000	-0.006154	-0.028341	0.000000	0.029001	-31.829224	0.000000	0.000000	0.000000	0.000000	0.000000	1
116.392892	15.642117	0.000000	-0.006047	-0.023106	0.000000	0.023884	-1.632071	0.000000	0.000000	0.000000	0.000000	0.000000	1
119.501884	15.642117	0.000000	0.010586	-0.004047	0.000000	0.011333	1.226991	0.000000	0.000000	0.000000	0.000000	0.000000	1
122.610876	15.642117	0.000000	0.006055	0.000467	0.000000	0.006073	-0.215634	0.000000	0.000000	0.000000	0.000000	0.000000	1