TITLE = "PIV Result  3355 "
VARIABLES = "X (mm)""Y (mm)""Z (mm)""U (m/s)""V (m/s)""W (m/s)""Speed (m/s)""Vorticity""U-std""V-std""W-std""Speed-std""Vorticity-std""Flag"
ZONE T="ZONE 3355 "
I= 51 , J= 16 , K= 1 , F=POINT
DT=(DOUBLE DOUBLE DOUBLE DOUBLE DOUBLE DOUBLE DOUBLE DOUBLE DOUBLE DOUBLE DOUBLE DOUBLE DOUBLE DOUBLE)
4.469176	3.206148	0.000000	0.001635	0.006460	0.000000	0.006664	1.403599	0.000000	0.000000	0.000000	0.000000	0.000000	1
7.578168	3.206148	0.000000	0.009146	0.009357	0.000000	0.013084	1.187963	0.000000	0.000000	0.000000	0.000000	0.000000	1
10.687160	3.206148	0.000000	0.008257	0.008585	0.000000	0.011912	1.408181	0.000000	0.000000	0.000000	0.000000	0.000000	1
13.796152	3.206148	0.000000	0.003491	0.008870	0.000000	0.009532	1.737327	0.000000	0.000000	0.000000	0.000000	0.000000	1
16.905145	3.206148	0.000000	0.000507	0.006230	0.000000	0.006251	0.479242	0.000000	0.000000	0.000000	0.000000	0.000000	1
20.014137	3.206148	0.000000	-0.000928	0.003472	0.000000	0.003594	-1.529826	0.000000	0.000000	0.000000	0.000000	0.000000	1
23.123129	3.206148	0.000000	-0.000989	0.003376	0.000000	0.003518	-1.442202	0.000000	0.000000	0.000000	0.000000	0.000000	1
26.232121	3.206148	0.000000	0.004889	0.010163	0.000000	0.011278	3.056888	0.000000	0.000000	0.000000	0.000000	0.000000	1
29.341113	3.206148	0.000000	0.006646	0.026518	0.000000	0.027338	2.916177	0.000000	0.000000	0.000000	0.000000	0.000000	1
32.450105	3.206148	0.000000	0.006346	0.019830	0.000000	0.020821	-4.850457	0.000000	0.000000	0.000000	0.000000	0.000000	1
35.559097	3.206148	0.000000	-0.003509	-0.002449	0.000000	0.004279	-7.183550	0.000000	0.000000	0.000000	0.000000	0.000000	1
38.668089	3.206148	0.000000	-0.006198	-0.001678	0.000000	0.006421	-5.425983	0.000000	0.000000	0.000000	0.000000	0.000000	1
41.777081	3.206148	0.000000	0.001364	-0.000698	0.000000	0.001532	-4.593052	0.000000	0.000000	0.000000	0.000000	0.000000	1
44.886073	3.206148	0.000000	0.001757	-0.000816	0.000000	0.001937	-2.361306	0.000000	0.000000	0.000000	0.000000	0.000000	1
47.995066	3.206148	0.000000	0.000434	-0.000674	0.000000	0.000802	-1.238083	0.000000	0.000000	0.000000	0.000000	0.000000	1
51.104058	3.206148	0.000000	-0.000879	-0.000769	0.000000	0.001167	-3.103938	0.000000	0.000000	0.000000	0.000000	0.000000	1
54.213050	3.206148	0.000000	-0.004875	-0.003006	0.000000	0.005728	-5.521720	0.000000	0.000000	0.000000	0.000000	0.000000	1
57.322042	3.206148	0.000000	-0.002890	-0.004841	0.000000	0.005638	-1.101465	0.000000	0.000000	0.000000	0.000000	0.000000	1
60.431034	3.206148	0.000000	-0.001279	-0.004145	0.000000	0.004338	5.074252	0.000000	0.000000	0.000000	0.000000	0.000000	1
63.540026	3.206148	0.000000	0.001891	-0.001610	0.000000	0.002484	7.356180	0.000000	0.000000	0.000000	0.000000	0.000000	1
66.649018	3.206148	0.000000	-0.007254	-0.002421	0.000000	0.007648	6.327513	0.000000	0.000000	0.000000	0.000000	0.000000	1
69.758010	3.206148	0.000000	-0.011101	-0.006063	0.000000	0.012649	-0.398855	0.000000	0.000000	0.000000	0.000000	0.000000	1
72.867002	3.206148	0.000000	-0.020675	-0.035519	0.000000	0.041098	1.920807	0.000000	0.000000	0.000000	0.000000	0.000000	1
75.975994	3.206148	0.000000	-0.003065	-0.018212	0.000000	0.018468	6.992409	0.000000	0.000000	0.000000	0.000000	0.000000	1
79.084987	3.206148	0.000000	-0.008668	-0.017895	0.000000	0.019884	10.127192	0.000000	0.000000	0.000000	0.000000	0.000000	1
82.193979	3.206148	0.000000	-0.025239	0.032330	0.000000	0.041015	7.489562	0.000000	0.000000	0.000000	0.000000	0.000000	1
85.302971	3.206148	0.000000	-0.010065	0.030226	0.000000	0.031858	124.611416	0.000000	0.000000	0.000000	0.000000	0.000000	1
88.411963	3.206148	0.000000	0.617976	1.119189	0.000000	1.278467	132.146911	0.000000	0.000000	0.000000	0.000000	0.000000	1
91.520955	3.206148	0.000000	0.701554	1.055697	0.000000	1.267547	-53.387573	0.000000	0.000000	0.000000	0.000000	0.000000	1
94.629947	3.206148	0.000000	0.404013	0.573794	0.000000	0.701759	-114.969865	0.000000	0.000000	0.000000	0.000000	0.000000	2
97.738939	3.206148	0.000000	0.519329	0.330911	0.000000	0.615796	-125.059397	0.000000	0.000000	0.000000	0.000000	0.000000	2
100.847931	3.206148	0.000000	0.499734	0.051159	0.000000	0.502346	-115.314936	0.000000	0.000000	0.000000	0.000000	0.000000	2
103.956923	3.206148	0.000000	0.246316	-0.000383	0.000000	0.246316	-74.591993	0.000000	0.000000	0.000000	0.000000	0.000000	2
107.065915	3.206148	0.000000	0.000233	0.000671	0.000000	0.000711	-32.088527	0.000000	0.000000	0.000000	0.000000	0.000000	1
110.174908	3.206148	0.000000	0.004762	0.000410	0.000000	0.004779	2.658428	0.000000	0.000000	0.000000	0.000000	0.000000	1
113.283900	3.206148	0.000000	-0.008595	-0.000257	0.000000	0.008599	7.277495	0.000000	0.000000	0.000000	0.000000	0.000000	1
116.392892	3.206148	0.000000	-0.012182	-0.000859	0.000000	0.012212	3.968528	0.000000	0.000000	0.000000	0.000000	0.000000	1
119.501884	3.206148	0.000000	-0.001145	-0.001094	0.000000	0.001584	1.263363	0.000000	0.000000	0.000000	0.000000	0.000000	1
122.610876	3.206148	0.000000	-0.001678	-0.000457	0.000000	0.001739	0.020675	0.000000	0.000000	0.000000	0.000000	0.000000	1
125.719868	3.206148	0.000000	-0.001256	-0.000237	0.000000	0.001278	0.149699	0.000000	0.000000	0.000000	0.000000	0.000000	1
128.828860	3.206148	0.000000	0.000652	0.000148	0.000000	0.000669	1.034292	0.000000	0.000000	0.000000	0.000000	0.000000	1
131.937852	3.206148	0.000000	-0.000551	0.000967	0.000000	0.001113	2.588689	0.000000	0.000000	0.000000	0.000000	0.000000	1
135.046844	3.206148	0.000000	-0.006990	0.011044	0.000000	0.013070	2.426288	0.000000	0.000000	0.000000	0.000000	0.000000	1
138.155836	3.206148	0.000000	-0.009763	0.015246	0.000000	0.018104	-1.128853	0.000000	0.000000	0.000000	0.000000	0.000000	1
141.264829	3.206148	0.000000	-0.004711	0.003777	0.000000	0.006038	-1.121635	0.000000	0.000000	0.000000	0.000000	0.000000	1
144.373821	3.206148	0.000000	-0.000972	0.003902	0.000000	0.004021	0.993155	0.000000	0.000000	0.000000	0.000000	0.000000	1
147.482813	3.206148	0.000000	-0.003364	0.003619	0.000000	0.004941	0.608758	0.000000	0.000000	0.000000	0.000000	0.000000	1
150.591805	3.206148	0.000000	-0.004264	0.003131	0.000000	0.005290	0.455477	0.000000	0.000000	0.000000	0.000000	0.000000	1
153.700797	3.206148	0.000000	-0.005657	0.005775	0.000000	0.008084	0.497032	0.000000	0.000000	0.000000	0.000000	0.000000	1
156.809789	3.206148	0.000000	-0.005720	0.008137	0.000000	0.009947	0.467786	0.000000	0.000000	0.000000	0.000000	0.000000	1
159.918781	3.206148	0.000000	-0.009887	0.011049	0.000000	0.014827	0.495030	0.000000	0.000000	0.000000	0.000000	0.000000	1
4.469176	6.315140	0.000000	0.001822	0.009041	0.000000	0.009223	0.539818	0.000000	0.000000	0.000000	0.000000	0.000000	1
7.578168	6.315140	0.000000	0.003996	0.009909	0.000000	0.010684	0.473807	0.000000	0.000000	0.000000	0.000000	0.000000	1
10.687160	6.315140	0.000000	0.006005	0.009324	0.000000	0.011090	0.843677	0.000000	0.000000	0.000000	0.000000	0.000000	1
13.796152	6.315140	0.000000	-0.003974	0.010787	0.000000	0.011496	0.772358	0.000000	0.000000	0.000000	0.000000	0.000000	1
16.905145	6.315140	0.000000	-0.004822	0.010772	0.000000	0.011802	-0.039870	0.000000	0.000000	0.000000	0.000000	0.000000	1
20.014137	6.315140	0.000000	0.006291	0.011240	0.000000	0.012881	-0.240932	0.000000	0.000000	0.000000	0.000000	0.000000	1
23.123129	6.315140	0.000000	0.006254	0.010953	0.000000	0.012613	-0.550646	0.000000	0.000000	0.000000	0.000000	0.000000	1
26.232121	6.315140	0.000000	0.002846	0.006277	0.000000	0.006893	1.984379	0.000000	0.000000	0.000000	0.000000	0.000000	1
29.341113	6.315140	0.000000	0.005336	0.027676	0.000000	0.028186	2.612276	0.000000	0.000000	0.000000	0.000000	0.000000	1
32.450105	6.315140	0.000000	0.005673	0.027543	0.000000	0.028121	-2.369920	0.000000	0.000000	0.000000	0.000000	0.000000	1
35.559097	6.315140	0.000000	0.012075	0.009253	0.000000	0.015213	-3.661528	0.000000	0.000000	0.000000	0.000000	0.000000	1
38.668089	6.315140	0.000000	0.014948	0.011359	0.000000	0.018774	-2.793666	0.000000	0.000000	0.000000	0.000000	0.000000	1
41.777081	6.315140	0.000000	0.012585	0.009123	0.000000	0.015544	-3.401470	0.000000	0.000000	0.000000	0.000000	0.000000	1
44.886073	6.315140	0.000000	0.005183	0.000393	0.000000	0.005198	-1.911481	0.000000	0.000000	0.000000	0.000000	0.000000	1
47.995066	6.315140	0.000000	0.003630	0.001005	0.000000	0.003766	-0.633392	0.000000	0.000000	0.000000	0.000000	0.000000	1
51.104058	6.315140	0.000000	0.001504	-0.002849	0.000000	0.003222	-1.201755	0.000000	0.000000	0.000000	0.000000	0.000000	1
54.213050	6.315140	0.000000	0.011413	-0.011015	0.000000	0.015861	0.730206	0.000000	0.000000	0.000000	0.000000	0.000000	1
57.322042	6.315140	0.000000	0.021975	-0.007621	0.000000	0.023259	4.315841	0.000000	0.000000	0.000000	0.000000	0.000000	1
60.431034	6.315140	0.000000	-0.018413	0.025312	0.000000	0.031301	2.699441	0.000000	0.000000	0.000000	0.000000	0.000000	1
63.540026	6.315140	0.000000	-0.032262	0.008696	0.000000	0.033414	2.025338	0.000000	0.000000	0.000000	0.000000	0.000000	1
66.649018	6.315140	0.000000	-0.032726	0.004157	0.000000	0.032989	2.225411	0.000000	0.000000	0.000000	0.000000	0.000000	1
69.758010	6.315140	0.000000	-0.029352	-0.011510	0.000000	0.031528	-3.524785	0.000000	0.000000	0.000000	0.000000	0.000000	1
72.867002	6.315140	0.000000	-0.023574	-0.032578	0.000000	0.040212	-2.759947	0.000000	0.000000	0.000000	0.000000	0.000000	1
75.975994	6.315140	0.000000	-0.022554	-0.019011	0.000000	0.029497	2.851659	0.000000	0.000000	0.000000	0.000000	0.000000	1
79.084987	6.315140	0.000000	-0.016640	-0.013091	0.000000	0.021172	7.062504	0.000000	0.000000	0.000000	0.000000	0.000000	1
82.193979	6.315140	0.000000	-0.022814	0.023382	0.000000	0.032668	2.003380	0.000000	0.000000	0.000000	0.000000	0.000000	1
85.302971	6.315140	0.000000	-0.013454	0.025418	0.000000	0.028759	87.653202	0.000000	0.000000	0.000000	0.000000	0.000000	1
88.411963	6.315140	0.000000	0.589123	0.452986	0.000000	0.743143	129.804281	0.000000	0.000000	0.000000	0.000000	0.000000	2
91.520955	6.315140	0.000000	0.710575	0.591252	0.000000	0.924389	35.198418	0.000000	0.000000	0.000000	0.000000	0.000000	2
94.629947	6.315140	0.000000	0.668389	0.588019	0.000000	0.890231	-35.903351	0.000000	0.000000	0.000000	0.000000	0.000000	1
97.738939	6.315140	0.000000	0.654851	0.559569	0.000000	0.861363	-88.575934	0.000000	0.000000	0.000000	0.000000	0.000000	1
100.847931	6.315140	0.000000	0.634644	0.225746	0.000000	0.673598	-92.573651	0.000000	0.000000	0.000000	0.000000	0.000000	2
103.956923	6.315140	0.000000	0.480140	0.095972	0.000000	0.489638	-59.283076	0.000000	0.000000	0.000000	0.000000	0.000000	2
107.065915	6.315140	0.000000	0.060080	0.011012	0.000000	0.061081	-39.013132	0.000000	0.000000	0.000000	0.000000	0.000000	2
110.174908	6.315140	0.000000	-0.034384	0.010498	0.000000	0.035951	-17.982511	0.000000	0.000000	0.000000	0.000000	0.000000	1
113.283900	6.315140	0.000000	-0.031743	0.003406	0.000000	0.031925	-2.019100	0.000000	0.000000	0.000000	0.000000	0.000000	1
116.392892	6.315140	0.000000	-0.028451	0.000559	0.000000	0.028457	-0.221598	0.000000	0.000000	0.000000	0.000000	0.000000	1
119.501884	6.315140	0.000000	-0.002809	-0.003754	0.000000	0.004689	0.295425	0.000000	0.000000	0.000000	0.000000	0.000000	1
122.610876	6.315140	0.000000	-0.000400	-0.002452	0.000000	0.002484	0.899555	0.000000	0.000000	0.000000	0.000000	0.000000	1
125.719868	6.315140	0.000000	-0.000219	-0.002426	0.000000	0.002436	0.630172	0.000000	0.000000	0.000000	0.000000	0.000000	1
128.828860	6.315140	0.000000	-0.002973	-0.001469	0.000000	0.003316	1.255212	0.000000	0.000000	0.000000	0.000000	0.000000	1
131.937852	6.315140	0.000000	-0.002189	0.001382	0.000000	0.002589	2.388004	0.000000	0.000000	0.000000	0.000000	0.000000	1
135.046844	6.315140	0.000000	-0.007237	0.012679	0.000000	0.014599	1.599060	0.000000	0.000000	0.000000	0.000000	0.000000	1
138.155836	6.315140	0.000000	-0.009670	0.015237	0.000000	0.018046	-1.705121	0.000000	0.000000	0.000000	0.000000	0.000000	1
141.264829	6.315140	0.000000	-0.005399	0.005160	0.000000	0.007468	-1.285753	0.000000	0.000000	0.000000	0.000000	0.000000	1
144.373821	6.315140	0.000000	-0.005527	0.006795	0.000000	0.008759	0.527140	0.000000	0.000000	0.000000	0.000000	0.000000	1
147.482813	6.315140	0.000000	-0.005869	0.005365	0.000000	0.007952	-0.104037	0.000000	0.000000	0.000000	0.000000	0.000000	1
150.591805	6.315140	0.000000	-0.005228	0.004608	0.000000	0.006968	-0.262656	0.000000	0.000000	0.000000	0.000000	0.000000	1
153.700797	6.315140	0.000000	-0.004524	0.005575	0.000000	0.007179	0.183189	0.000000	0.000000	0.000000	0.000000	0.000000	1
156.809789	6.315140	0.000000	-0.006054	0.006752	0.000000	0.009068	0.554345	0.000000	0.000000	0.000000	0.000000	0.000000	1
159.918781	6.315140	0.000000	-0.007939	0.008532	0.000000	0.011654	0.748561	0.000000	0.000000	0.000000	0.000000	0.000000	1
4.469176	9.424132	0.000000	0.002477	0.008349	0.000000	0.008708	-2.196345	0.000000	0.000000	0.000000	0.000000	0.000000	1
7.578168	9.424132	0.000000	0.004858	0.006985	0.000000	0.008508	-1.567465	0.000000	0.000000	0.000000	0.000000	0.000000	1
10.687160	9.424132	0.000000	0.004655	0.006108	0.000000	0.007680	-0.203930	0.000000	0.000000	0.000000	0.000000	0.000000	1
13.796152	9.424132	0.000000	-0.002607	0.009109	0.000000	0.009475	-0.923539	0.000000	0.000000	0.000000	0.000000	0.000000	1
16.905145	9.424132	0.000000	-0.003267	0.005206	0.000000	0.006146	-1.983583	0.000000	0.000000	0.000000	0.000000	0.000000	1
20.014137	9.424132	0.000000	0.001696	0.001588	0.000000	0.002323	-0.228299	0.000000	0.000000	0.000000	0.000000	0.000000	1
23.123129	9.424132	0.000000	0.005378	0.009547	0.000000	0.010957	0.612750	0.000000	0.000000	0.000000	0.000000	0.000000	1
26.232121	9.424132	0.000000	0.011633	0.013231	0.000000	0.017618	0.955914	0.000000	0.000000	0.000000	0.000000	0.000000	1
29.341113	9.424132	0.000000	-0.001121	0.014404	0.000000	0.014447	1.046565	0.000000	0.000000	0.000000	0.000000	0.000000	1
32.450105	9.424132	0.000000	0.002746	0.013616	0.000000	0.013891	0.450550	0.000000	0.000000	0.000000	0.000000	0.000000	1
35.559097	9.424132	0.000000	0.009490	0.019305	0.000000	0.021512	1.024071	0.000000	0.000000	0.000000	0.000000	0.000000	1
38.668089	9.424132	0.000000	0.012666	0.017685	0.000000	0.021753	-0.393427	0.000000	0.000000	0.000000	0.000000	0.000000	1
41.777081	9.424132	0.000000	0.012642	0.010335	0.000000	0.016328	-1.970274	0.000000	0.000000	0.000000	0.000000	0.000000	1
44.886073	9.424132	0.000000	0.008905	0.002721	0.000000	0.009312	0.570161	0.000000	0.000000	0.000000	0.000000	0.000000	1
47.995066	9.424132	0.000000	0.002925	0.007072	0.000000	0.007653	2.678522	0.000000	0.000000	0.000000	0.000000	0.000000	1
51.104058	9.424132	0.000000	0.000639	0.007054	0.000000	0.007083	2.113894	0.000000	0.000000	0.000000	0.000000	0.000000	1
54.213050	9.424132	0.000000	-0.008770	0.005184	0.000000	0.010187	5.623017	0.000000	0.000000	0.000000	0.000000	0.000000	1
57.322042	9.424132	0.000000	-0.005122	0.030327	0.000000	0.030757	7.119069	0.000000	0.000000	0.000000	0.000000	0.000000	1
60.431034	9.424132	0.000000	-0.009896	0.024039	0.000000	0.025996	-0.297009	0.000000	0.000000	0.000000	0.000000	0.000000	1
63.540026	9.424132	0.000000	-0.034699	0.005549	0.000000	0.035139	-4.520917	0.000000	0.000000	0.000000	0.000000	0.000000	1
66.649018	9.424132	0.000000	-0.036997	0.003460	0.000000	0.037159	-5.406702	0.000000	0.000000	0.000000	0.000000	0.000000	1
69.758010	9.424132	0.000000	-0.019484	0.001305	0.000000	0.019528	-7.919484	0.000000	0.000000	0.000000	0.000000	0.000000	1
72.867002	9.424132	0.000000	0.004375	0.000899	0.000000	0.004466	-6.310859	0.000000	0.000000	0.000000	0.000000	0.000000	1
75.975994	9.424132	0.000000	-0.022720	-0.018127	0.000000	0.029065	-1.105214	0.000000	0.000000	0.000000	0.000000	0.000000	1
79.084987	9.424132	0.000000	-0.018711	-0.009073	0.000000	0.020795	4.128258	0.000000	0.000000	0.000000	0.000000	0.000000	1
82.193979	9.424132	0.000000	-0.006496	0.001206	0.000000	0.006607	2.222220	0.000000	0.000000	0.000000	0.000000	0.000000	1
85.302971	9.424132	0.000000	0.041189	-0.005686	0.000000	0.041580	42.666264	0.000000	0.000000	0.000000	0.000000	0.000000	1
88.411963	9.424132	0.000000	0.353231	0.091758	0.000000	0.364954	107.948079	0.000000	0.000000	0.000000	0.000000	0.000000	2
91.520955	9.424132	0.000000	0.419408	0.305284	0.000000	0.518750	123.607533	0.000000	0.000000	0.000000	0.000000	0.000000	1
94.629947	9.424132	0.000000	0.602452	0.611942	0.000000	0.858732	74.154505	0.000000	0.000000	0.000000	0.000000	0.000000	1
97.738939	9.424132	0.000000	0.790660	0.586510	0.000000	0.984448	4.465807	0.000000	0.000000	0.000000	0.000000	0.000000	2
100.847931	9.424132	0.000000	0.620477	0.517907	0.000000	0.808219	-35.467553	0.000000	0.000000	0.000000	0.000000	0.000000	1
103.956923	9.424132	0.000000	0.435067	0.244073	0.000000	0.498853	-40.633144	0.000000	0.000000	0.000000	0.000000	0.000000	1
107.065915	9.424132	0.000000	0.175244	0.196627	0.000000	0.263387	-63.666001	0.000000	0.000000	0.000000	0.000000	0.000000	2
110.174908	9.424132	0.000000	0.044222	0.022127	0.000000	0.049449	-82.127988	0.000000	0.000000	0.000000	0.000000	0.000000	2
113.283900	9.424132	0.000000	-0.024455	0.003577	0.000000	0.024715	-42.437550	0.000000	0.000000	0.000000	0.000000	0.000000	1
116.392892	9.424132	0.000000	-0.016141	-0.003163	0.000000	0.016448	-12.395275	0.000000	0.000000	0.000000	0.000000	0.000000	1
119.501884	9.424132	0.000000	-0.008648	-0.018056	0.000000	0.020020	-1.908018	0.000000	0.000000	0.000000	0.000000	0.000000	1
122.610876	9.424132	0.000000	0.001692	-0.005791	0.000000	0.006033	2.929940	0.000000	0.000000	0.000000	0.000000	0.000000	1
125.719868	9.424132	0.000000	-0.003565	-0.002268	0.000000	0.004225	1.508897	0.000000	0.000000	0.000000	0.000000	0.000000	1
128.828860	9.424132	0.000000	-0.005135	0.000276	0.000000	0.005142	0.729284	0.000000	0.000000	0.000000	0.000000	0.000000	1
131.937852	9.424132	0.000000	-0.005333	0.001467	0.000000	0.005531	1.200323	0.000000	0.000000	0.000000	0.000000	0.000000	1
135.046844	9.424132	0.000000	-0.003624	0.008493	0.000000	0.009234	0.683662	0.000000	0.000000	0.000000	0.000000	0.000000	1
138.155836	9.424132	0.000000	-0.002727	0.008236	0.000000	0.008675	-1.374101	0.000000	0.000000	0.000000	0.000000	0.000000	1
141.264829	9.424132	0.000000	-0.005278	0.005260	0.000000	0.007452	-0.976955	0.000000	0.000000	0.000000	0.000000	0.000000	1
144.373821	9.424132	0.000000	-0.005188	0.006170	0.000000	0.008061	-0.282264	0.000000	0.000000	0.000000	0.000000	0.000000	1
147.482813	9.424132	0.000000	-0.005307	0.007175	0.000000	0.008925	-1.175890	0.000000	0.000000	0.000000	0.000000	0.000000	1
150.591805	9.424132	0.000000	-0.002226	0.002664	0.000000	0.003472	-0.839035	0.000000	0.000000	0.000000	0.000000	0.000000	1
153.700797	9.424132	0.000000	-0.002482	0.003376	0.000000	0.004191	1.081740	0.000000	0.000000	0.000000	0.000000	0.000000	1
156.809789	9.424132	0.000000	-0.005419	0.006615	0.000000	0.008551	2.081769	0.000000	0.000000	0.000000	0.000000	0.000000	1
159.918781	9.424132	0.000000	-0.009014	0.010626	0.000000	0.013934	1.989761	0.000000	0.000000	0.000000	0.000000	0.000000	1
4.469176	12.533124	0.000000	0.017777	0.009783	0.000000	0.020291	-2.985805	0.000000	0.000000	0.000000	0.000000	0.000000	1
7.578168	12.533124	0.000000	0.011983	0.008272	0.000000	0.014561	-2.091042	0.000000	0.000000	0.000000	0.000000	0.000000	1
10.687160	12.533124	0.000000	0.004876	0.005797	0.000000	0.007575	-0.027986	0.000000	0.000000	0.000000	0.000000	0.000000	1
13.796152	12.533124	0.000000	0.004052	0.011829	0.000000	0.012504	-1.126991	0.000000	0.000000	0.000000	0.000000	0.000000	1
16.905145	12.533124	0.000000	0.006849	0.009778	0.000000	0.011938	-2.637701	0.000000	0.000000	0.000000	0.000000	0.000000	1
20.014137	12.533124	0.000000	0.006435	0.008595	0.000000	0.010737	-1.062296	0.000000	0.000000	0.000000	0.000000	0.000000	1
23.123129	12.533124	0.000000	0.004802	0.005744	0.000000	0.007487	0.331595	0.000000	0.000000	0.000000	0.000000	0.000000	1
26.232121	12.533124	0.000000	0.006266	0.006173	0.000000	0.008796	0.602145	0.000000	0.000000	0.000000	0.000000	0.000000	1
29.341113	12.533124	0.000000	0.003795	0.006928	0.000000	0.007900	-0.102608	0.000000	0.000000	0.000000	0.000000	0.000000	1
32.450105	12.533124	0.000000	0.002689	0.007519	0.000000	0.007985	0.979421	0.000000	0.000000	0.000000	0.000000	0.000000	1
35.559097	12.533124	0.000000	0.006058	0.013228	0.000000	0.014549	2.659524	0.000000	0.000000	0.000000	0.000000	0.000000	1
38.668089	12.533124	0.000000	0.016038	0.027107	0.000000	0.031496	0.549872	0.000000	0.000000	0.000000	0.000000	0.000000	1
41.777081	12.533124	0.000000	0.006814	0.011905	0.000000	0.013717	-0.458500	0.000000	0.000000	0.000000	0.000000	0.000000	1
44.886073	12.533124	0.000000	0.002681	0.006042	0.000000	0.006611	3.405387	0.000000	0.000000	0.000000	0.000000	0.000000	1
47.995066	12.533124	0.000000	-0.014268	0.012058	0.000000	0.018681	6.226530	0.000000	0.000000	0.000000	0.000000	0.000000	1
51.104058	12.533124	0.000000	-0.014228	0.013210	0.000000	0.019415	7.649210	0.000000	0.000000	0.000000	0.000000	0.000000	1
54.213050	12.533124	0.000000	0.000817	0.020473	0.000000	0.020489	10.291547	0.000000	0.000000	0.000000	0.000000	0.000000	1
57.322042	12.533124	0.000000	-0.008982	0.043410	0.000000	0.044329	6.002912	0.000000	0.000000	0.000000	0.000000	0.000000	1
60.431034	12.533124	0.000000	-0.026658	0.042746	0.000000	0.050377	-2.301350	0.000000	0.000000	0.000000	0.000000	0.000000	1
63.540026	12.533124	0.000000	-0.025821	0.028255	0.000000	0.038276	-4.429906	0.000000	0.000000	0.000000	0.000000	0.000000	1
66.649018	12.533124	0.000000	-0.001997	0.027980	0.000000	0.028051	-4.380906	0.000000	0.000000	0.000000	0.000000	0.000000	1
69.758010	12.533124	0.000000	0.007345	0.027069	0.000000	0.028048	-4.223843	0.000000	0.000000	0.000000	0.000000	0.000000	1
72.867002	12.533124	0.000000	0.007979	0.008538	0.000000	0.011687	-1.429955	0.000000	0.000000	0.000000	0.000000	0.000000	1
75.975994	12.533124	0.000000	-0.016709	0.022120	0.000000	0.027721	-0.968524	0.000000	0.000000	0.000000	0.000000	0.000000	1
79.084987	12.533124	0.000000	-0.034863	0.006528	0.000000	0.035468	0.778123	0.000000	0.000000	0.000000	0.000000	0.000000	1
82.193979	12.533124	0.000000	-0.029759	0.006193	0.000000	0.030396	5.307381	0.000000	0.000000	0.000000	0.000000	0.000000	1
85.302971	12.533124	0.000000	0.007593	0.005452	0.000000	0.009348	25.215779	0.000000	0.000000	0.000000	0.000000	0.000000	1
88.411963	12.533124	0.000000	0.148513	0.051221	0.000000	0.157098	71.706312	0.000000	0.000000	0.000000	0.000000	0.000000	2
91.520955	12.533124	0.000000	0.312591	0.244403	0.000000	0.396795	122.855615	0.000000	0.000000	0.000000	0.000000	0.000000	1
94.629947	12.533124	0.000000	0.510662	0.555879	0.000000	0.754836	114.209642	0.000000	0.000000	0.000000	0.000000	0.000000	1
97.738939	12.533124	0.000000	0.488864	0.678579	0.000000	0.836336	55.487785	0.000000	0.000000	0.000000	0.000000	0.000000	1
100.847931	12.533124	0.000000	0.519015	0.611966	0.000000	0.802421	-24.710603	0.000000	0.000000	0.000000	0.000000	0.000000	1
103.956923	12.533124	0.000000	0.331620	0.399136	0.000000	0.518923	-59.059777	0.000000	0.000000	0.000000	0.000000	0.000000	1
107.065915	12.533124	0.000000	0.361922	0.347803	0.000000	0.501951	-69.954030	0.000000	0.000000	0.000000	0.000000	0.000000	1
110.174908	12.533124	0.000000	0.415286	0.249837	0.000000	0.484645	-113.953288	0.000000	0.000000	0.000000	0.000000	0.000000	1
113.283900	12.533124	0.000000	0.085566	0.017314	0.000000	0.087300	-97.729864	0.000000	0.000000	0.000000	0.000000	0.000000	1
116.392892	12.533124	0.000000	0.026532	-0.005881	0.000000	0.027176	-40.369431	0.000000	0.000000	0.000000	0.000000	0.000000	2
119.501884	12.533124	0.000000	-0.008192	-0.018662	0.000000	0.020380	-5.752049	0.000000	0.000000	0.000000	0.000000	0.000000	1
122.610876	12.533124	0.000000	-0.003920	-0.004372	0.000000	0.005872	1.252176	0.000000	0.000000	0.000000	0.000000	0.000000	1
125.719868	12.533124	0.000000	-0.007571	0.001534	0.000000	0.007725	0.561811	0.000000	0.000000	0.000000	0.000000	0.000000	1
128.828860	12.533124	0.000000	-0.002473	0.002315	0.000000	0.003388	-0.251987	0.000000	0.000000	0.000000	0.000000	0.000000	1
131.937852	12.533124	0.000000	-0.001982	0.002247	0.000000	0.002996	0.167197	0.000000	0.000000	0.000000	0.000000	0.000000	1
135.046844	12.533124	0.000000	-0.003195	0.006542	0.000000	0.007281	0.482433	0.000000	0.000000	0.000000	0.000000	0.000000	1
138.155836	12.533124	0.000000	-0.003117	0.006702	0.000000	0.007391	-0.466348	0.000000	0.000000	0.000000	0.000000	0.000000	1
141.264829	12.533124	0.000000	-0.006649	0.002247	0.000000	0.007019	-0.773571	0.000000	0.000000	0.000000	0.000000	0.000000	1
144.373821	12.533124	0.000000	-0.002349	0.002206	0.000000	0.003223	-0.304489	0.000000	0.000000	0.000000	0.000000	0.000000	1
147.482813	12.533124	0.000000	-0.000330	0.001835	0.000000	0.001864	-0.236347	0.000000	0.000000	0.000000	0.000000	0.000000	1
150.591805	12.533124	0.000000	-0.000990	0.000651	0.000000	0.001185	0.586592	0.000000	0.000000	0.000000	0.000000	0.000000	1
153.700797	12.533124	0.000000	-0.004508	0.002385	0.000000	0.005100	2.083588	0.000000	0.000000	0.000000	0.000000	0.000000	1
156.809789	12.533124	0.000000	-0.018277	0.009558	0.000000	0.020625	1.212376	0.000000	0.000000	0.000000	0.000000	0.000000	1
159.918781	12.533124	0.000000	-0.010990	0.009227	0.000000	0.014350	-0.136225	0.000000	0.000000	0.000000	0.000000	0.000000	1
4.469176	15.642117	0.000000	0.019259	0.010055	0.000000	0.021726	2.571295	0.000000	0.000000	0.000000	0.000000	0.000000	1
7.578168	15.642117	0.000000	0.020903	0.010136	0.000000	0.023231	1.780080	0.000000	0.000000	0.000000	0.000000	0.000000	1
10.687160	15.642117	0.000000	-0.000123	0.012353	0.000000	0.012353	1.241342	0.000000	0.000000	0.000000	0.000000	0.000000	1
13.796152	15.642117	0.000000	0.009767	0.019063	0.000000	0.021420	-0.855093	0.000000	0.000000	0.000000	0.000000	0.000000	1
16.905145	15.642117	0.000000	0.007733	0.008230	0.000000	0.011293	-1.639569	0.000000	0.000000	0.000000	0.000000	0.000000	1
20.014137	15.642117	0.000000	0.006668	0.006792	0.000000	0.009518	-0.214831	0.000000	0.000000	0.000000	0.000000	0.000000	1
23.123129	15.642117	0.000000	0.004593	0.005694	0.000000	0.007316	-0.137162	0.000000	0.000000	0.000000	0.000000	0.000000	1
26.232121	15.642117	0.000000	0.005786	0.005796	0.000000	0.008190	0.219728	0.000000	0.000000	0.000000	0.000000	0.000000	1
29.341113	15.642117	0.000000	0.005479	0.007567	0.000000	0.009342	1.235135	0.000000	0.000000	0.000000	0.000000	0.000000	1
32.450105	15.642117	0.000000	-0.000391	0.004383	0.000000	0.004400	3.364359	0.000000	0.000000	0.000000	0.000000	0.000000	1
35.559097	15.642117	0.000000	0.006643	0.011905	0.000000	0.013633	4.662045	0.000000	0.000000	0.000000	0.000000	0.000000	1
38.668089	15.642117	0.000000	0.017457	0.023245	0.000000	0.029070	4.311992	0.000000	0.000000	0.000000	0.000000	0.000000	1
41.777081	15.642117	0.000000	0.005828	0.037119	0.000000	0.037574	2.841266	0.000000	0.000000	0.000000	0.000000	0.000000	1
44.886073	15.642117	0.000000	-0.014144	0.037049	0.000000	0.039657	2.492498	0.000000	0.000000	0.000000	0.000000	0.000000	1
47.995066	15.642117	0.000000	-0.033462	0.035477	0.000000	0.048768	3.209354	0.000000	0.000000	0.000000	0.000000	0.000000	1
51.104058	15.642117	0.000000	-0.046778	0.030008	0.000000	0.055576	7.613365	0.000000	0.000000	0.000000	0.000000	0.000000	1
54.213050	15.642117	0.000000	-0.049770	0.038565	0.000000	0.062963	9.713398	0.000000	0.000000	0.000000	0.000000	0.000000	1
57.322042	15.642117	0.000000	-0.033673	0.044337	0.000000	0.055674	1.750235	0.000000	0.000000	0.000000	0.000000	0.000000	1
60.431034	15.642117	0.000000	-0.016899	0.019362	0.000000	0.025700	-2.642973	0.000000	0.000000	0.000000	0.000000	0.000000	1
63.540026	15.642117	0.000000	-0.018218	0.016110	0.000000	0.024319	1.127020	0.000000	0.000000	0.000000	0.000000	0.000000	1
66.649018	15.642117	0.000000	-0.002626	0.019623	0.000000	0.019798	3.314698	0.000000	0.000000	0.000000	0.000000	0.000000	1
69.758010	15.642117	0.000000	0.003181	0.021652	0.000000	0.021884	4.299323	0.000000	0.000000	0.000000	0.000000	0.000000	1
72.867002	15.642117	0.000000	-0.010406	0.020932	0.000000	0.023376	4.673951	0.000000	0.000000	0.000000	0.000000	0.000000	1
75.975994	15.642117	0.000000	-0.010193	0.021047	0.000000	0.023385	-2.226813	0.000000	0.000000	0.000000	0.000000	0.000000	1
79.084987	15.642117	0.000000	-0.035199	0.004619	0.000000	0.035501	-5.794301	0.000000	0.000000	0.000000	0.000000	0.000000	1
82.193979	15.642117	0.000000	-0.030172	0.008794	0.000000	0.031427	-2.834568	0.000000	0.000000	0.000000	0.000000	0.000000	1
85.302971	15.642117	0.000000	-0.003796	0.026564	0.000000	0.026834	5.189050	0.000000	0.000000	0.000000	0.000000	0.000000	1
88.411963	15.642117	0.000000	0.054637	0.043113	0.000000	0.069598	31.911806	0.000000	0.000000	0.000000	0.000000	0.000000	2
91.520955	15.642117	0.000000	0.124398	0.083986	0.000000	0.150095	91.584083	0.000000	0.000000	0.000000	0.000000	0.000000	1
94.629947	15.642117	0.000000	0.288820	0.367032	0.000000	0.467043	99.276546	0.000000	0.000000	0.000000	0.000000	0.000000	1
97.738939	15.642117	0.000000	0.407384	0.469481	0.000000	0.621590	54.641887	0.000000	0.000000	0.000000	0.000000	0.000000	1
100.847931	15.642117	0.000000	0.579038	0.607362	0.000000	0.839150	-6.568697	0.000000	0.000000	0.000000	0.000000	0.000000	1
103.956923	15.642117	0.000000	0.540503	0.395485	0.000000	0.669740	-36.967464	0.000000	0.000000	0.000000	0.000000	0.000000	2
107.065915	15.642117	0.000000	0.404856	0.387078	0.000000	0.560123	-39.006698	0.000000	0.000000	0.000000	0.000000	0.000000	1
110.174908	15.642117	0.000000	0.569056	0.265627	0.000000	0.627999	-71.526468	0.000000	0.000000	0.000000	0.000000	0.000000	1
113.283900	15.642117	0.000000	0.481879	0.192474	0.000000	0.518896	-86.377010	0.000000	0.000000	0.000000	0.000000	0.000000	2
116.392892	15.642117	0.000000	0.085314	0.010571	0.000000	0.085967	-61.352797	0.000000	0.000000	0.000000	0.000000	0.000000	2
119.501884	15.642117	0.000000	0.009224	0.009106	0.000000	0.012962	-16.950264	0.000000	0.000000	0.000000	0.000000	0.000000	1
122.610876	15.642117	0.000000	0.002632	0.005256	0.000000	0.005878	-1.116189	0.000000	0.000000	0.000000	0.000000	0.000000	1