TITLE = "PIV Result  1559 "
VARIABLES = "X (mm)""Y (mm)""Z (mm)""U (m/s)""V (m/s)""W (m/s)""Speed (m/s)""Vorticity""U-std""V-std""W-std""Speed-std""Vorticity-std""Flag"
ZONE T="ZONE 1559 "
I= 51 , J= 16 , K= 1 , F=POINT
DT=(DOUBLE DOUBLE DOUBLE DOUBLE DOUBLE DOUBLE DOUBLE DOUBLE DOUBLE DOUBLE DOUBLE DOUBLE DOUBLE DOUBLE)
4.469176	3.206148	0.000000	-0.001342	0.011083	0.000000	0.011164	1.409138	0.000000	0.000000	0.000000	0.000000	0.000000	2
7.578168	3.206148	0.000000	0.003808	0.014778	0.000000	0.015261	-0.203709	0.000000	0.000000	0.000000	0.000000	0.000000	1
10.687160	3.206148	0.000000	0.003355	0.014921	0.000000	0.015294	-2.465965	0.000000	0.000000	0.000000	0.000000	0.000000	1
13.796152	3.206148	0.000000	-0.001528	0.007110	0.000000	0.007273	-0.780554	0.000000	0.000000	0.000000	0.000000	0.000000	1
16.905145	3.206148	0.000000	-0.000040	0.017366	0.000000	0.017366	1.284948	0.000000	0.000000	0.000000	0.000000	0.000000	1
20.014137	3.206148	0.000000	0.000381	0.017582	0.000000	0.017587	0.191086	0.000000	0.000000	0.000000	0.000000	0.000000	1
23.123129	3.206148	0.000000	0.001855	0.009480	0.000000	0.009660	-0.229800	0.000000	0.000000	0.000000	0.000000	0.000000	1
26.232121	3.206148	0.000000	0.002188	0.012841	0.000000	0.013026	-0.111862	0.000000	0.000000	0.000000	0.000000	0.000000	1
29.341113	3.206148	0.000000	0.001541	0.012967	0.000000	0.013058	-0.461520	0.000000	0.000000	0.000000	0.000000	0.000000	1
32.450105	3.206148	0.000000	-0.001729	0.006594	0.000000	0.006817	-1.319521	0.000000	0.000000	0.000000	0.000000	0.000000	1
35.559097	3.206148	0.000000	-0.000677	-0.001171	0.000000	0.001353	-1.181913	0.000000	0.000000	0.000000	0.000000	0.000000	1
38.668089	3.206148	0.000000	-0.001033	-0.000723	0.000000	0.001261	-0.459687	0.000000	0.000000	0.000000	0.000000	0.000000	1
41.777081	3.206148	0.000000	-0.001539	-0.000041	0.000000	0.001539	-0.638726	0.000000	0.000000	0.000000	0.000000	0.000000	1
44.886073	3.206148	0.000000	-0.000852	-0.000329	0.000000	0.000913	-0.523805	0.000000	0.000000	0.000000	0.000000	0.000000	1
47.995066	3.206148	0.000000	-0.000068	-0.000621	0.000000	0.000625	-0.978221	0.000000	0.000000	0.000000	0.000000	0.000000	1
51.104058	3.206148	0.000000	0.001670	0.000407	0.000000	0.001719	-2.198507	0.000000	0.000000	0.000000	0.000000	0.000000	1
54.213050	3.206148	0.000000	-0.006472	0.000023	0.000000	0.006472	-1.706013	0.000000	0.000000	0.000000	0.000000	0.000000	1
57.322042	3.206148	0.000000	-0.009923	0.000687	0.000000	0.009947	2.285564	0.000000	0.000000	0.000000	0.000000	0.000000	1
60.431034	3.206148	0.000000	-0.003817	0.001944	0.000000	0.004283	2.635036	0.000000	0.000000	0.000000	0.000000	0.000000	1
63.540026	3.206148	0.000000	-0.012078	-0.001017	0.000000	0.012121	73.973327	0.000000	0.000000	0.000000	0.000000	0.000000	1
66.649018	3.206148	0.000000	-0.096817	0.008415	0.000000	0.097182	146.582389	0.000000	0.000000	0.000000	0.000000	0.000000	1
69.758010	3.206148	0.000000	-0.572412	0.599645	0.000000	0.828993	82.934598	0.000000	0.000000	0.000000	0.000000	0.000000	2
72.867002	3.206148	0.000000	-0.571712	0.661465	0.000000	0.874294	-12.925274	0.000000	0.000000	0.000000	0.000000	0.000000	1
75.975994	3.206148	0.000000	-0.787312	0.894489	0.000000	1.191625	-158.324331	0.000000	0.000000	0.000000	0.000000	0.000000	1
79.084987	3.206148	0.000000	-0.038251	0.050253	0.000000	0.063155	-147.005733	0.000000	0.000000	0.000000	0.000000	0.000000	2
82.193979	3.206148	0.000000	-0.049004	-0.002221	0.000000	0.049054	-24.282513	0.000000	0.000000	0.000000	0.000000	0.000000	2
85.302971	3.206148	0.000000	-0.030157	-0.025786	0.000000	0.039678	-15.554256	0.000000	0.000000	0.000000	0.000000	0.000000	2
88.411963	3.206148	0.000000	-0.006384	-0.028983	0.000000	0.029678	-4.766431	0.000000	0.000000	0.000000	0.000000	0.000000	2
91.520955	3.206148	0.000000	0.024572	-0.023813	0.000000	0.034217	6.082021	0.000000	0.000000	0.000000	0.000000	0.000000	1
94.629947	3.206148	0.000000	-0.004670	0.000325	0.000000	0.004681	10.845121	0.000000	0.000000	0.000000	0.000000	0.000000	1
97.738939	3.206148	0.000000	-0.024670	0.004937	0.000000	0.025159	2.818235	0.000000	0.000000	0.000000	0.000000	0.000000	1
100.847931	3.206148	0.000000	-0.003759	-0.000863	0.000000	0.003857	0.240205	0.000000	0.000000	0.000000	0.000000	0.000000	1
103.956923	3.206148	0.000000	0.001849	-0.001519	0.000000	0.002393	1.555937	0.000000	0.000000	0.000000	0.000000	0.000000	1
107.065915	3.206148	0.000000	-0.007143	0.000734	0.000000	0.007180	3.358880	0.000000	0.000000	0.000000	0.000000	0.000000	1
110.174908	3.206148	0.000000	-0.009484	0.000597	0.000000	0.009503	5.376894	0.000000	0.000000	0.000000	0.000000	0.000000	1
113.283900	3.206148	0.000000	-0.010483	0.000268	0.000000	0.010487	5.013622	0.000000	0.000000	0.000000	0.000000	0.000000	1
116.392892	3.206148	0.000000	-0.003002	-0.000030	0.000000	0.003002	3.569916	0.000000	0.000000	0.000000	0.000000	0.000000	1
119.501884	3.206148	0.000000	-0.000782	-0.000232	0.000000	0.000815	2.904355	0.000000	0.000000	0.000000	0.000000	0.000000	1
122.610876	3.206148	0.000000	-0.000174	0.000276	0.000000	0.000326	2.688123	0.000000	0.000000	0.000000	0.000000	0.000000	1
125.719868	3.206148	0.000000	0.000914	-0.000183	0.000000	0.000932	2.650030	0.000000	0.000000	0.000000	0.000000	0.000000	1
128.828860	3.206148	0.000000	0.001169	-0.000315	0.000000	0.001211	2.226401	0.000000	0.000000	0.000000	0.000000	0.000000	1
131.937852	3.206148	0.000000	0.000512	-0.000170	0.000000	0.000539	2.086748	0.000000	0.000000	0.000000	0.000000	0.000000	1
135.046844	3.206148	0.000000	-0.002271	0.004735	0.000000	0.005252	2.128680	0.000000	0.000000	0.000000	0.000000	0.000000	1
138.155836	3.206148	0.000000	0.001197	0.004070	0.000000	0.004242	1.960247	0.000000	0.000000	0.000000	0.000000	0.000000	1
141.264829	3.206148	0.000000	0.000925	0.004005	0.000000	0.004110	1.886832	0.000000	0.000000	0.000000	0.000000	0.000000	1
144.373821	3.206148	0.000000	-0.003644	0.007628	0.000000	0.008454	0.768864	0.000000	0.000000	0.000000	0.000000	0.000000	1
147.482813	3.206148	0.000000	-0.002725	0.006591	0.000000	0.007132	-0.760754	0.000000	0.000000	0.000000	0.000000	0.000000	1
150.591805	3.206148	0.000000	-0.003025	0.003286	0.000000	0.004467	-0.168304	0.000000	0.000000	0.000000	0.000000	0.000000	1
153.700797	3.206148	0.000000	-0.007168	0.007291	0.000000	0.010224	0.383710	0.000000	0.000000	0.000000	0.000000	0.000000	1
156.809789	3.206148	0.000000	-0.005105	0.008583	0.000000	0.009986	-0.723297	0.000000	0.000000	0.000000	0.000000	0.000000	1
159.918781	3.206148	0.000000	-0.002789	0.005659	0.000000	0.006309	-1.330774	0.000000	0.000000	0.000000	0.000000	0.000000	1
4.469176	6.315140	0.000000	0.000581	0.004017	0.000000	0.004058	2.683420	0.000000	0.000000	0.000000	0.000000	0.000000	1
7.578168	6.315140	0.000000	0.008503	0.015701	0.000000	0.017856	1.190324	0.000000	0.000000	0.000000	0.000000	0.000000	1
10.687160	6.315140	0.000000	0.007523	0.013125	0.000000	0.015128	-1.328928	0.000000	0.000000	0.000000	0.000000	0.000000	1
13.796152	6.315140	0.000000	0.000388	0.007649	0.000000	0.007659	-1.003487	0.000000	0.000000	0.000000	0.000000	0.000000	1
16.905145	6.315140	0.000000	-0.001325	0.007688	0.000000	0.007802	0.332403	0.000000	0.000000	0.000000	0.000000	0.000000	1
20.014137	6.315140	0.000000	-0.001638	0.010483	0.000000	0.010610	-0.179782	0.000000	0.000000	0.000000	0.000000	0.000000	1
23.123129	6.315140	0.000000	0.001565	0.012337	0.000000	0.012436	-0.164808	0.000000	0.000000	0.000000	0.000000	0.000000	1
26.232121	6.315140	0.000000	0.003431	0.011011	0.000000	0.011533	-0.082115	0.000000	0.000000	0.000000	0.000000	0.000000	1
29.341113	6.315140	0.000000	0.002244	0.010359	0.000000	0.010599	-1.446769	0.000000	0.000000	0.000000	0.000000	0.000000	1
32.450105	6.315140	0.000000	-0.004273	0.011623	0.000000	0.012384	-3.006199	0.000000	0.000000	0.000000	0.000000	0.000000	1
35.559097	6.315140	0.000000	-0.001912	0.002467	0.000000	0.003122	-2.186530	0.000000	0.000000	0.000000	0.000000	0.000000	1
38.668089	6.315140	0.000000	-0.000489	-0.000228	0.000000	0.000540	-0.702095	0.000000	0.000000	0.000000	0.000000	0.000000	1
41.777081	6.315140	0.000000	0.000730	-0.002259	0.000000	0.002374	0.245712	0.000000	0.000000	0.000000	0.000000	0.000000	1
44.886073	6.315140	0.000000	0.001139	-0.001494	0.000000	0.001879	1.084820	0.000000	0.000000	0.000000	0.000000	0.000000	1
47.995066	6.315140	0.000000	0.001425	-0.000448	0.000000	0.001494	-0.277361	0.000000	0.000000	0.000000	0.000000	0.000000	1
51.104058	6.315140	0.000000	0.008675	-0.002412	0.000000	0.009004	-2.238501	0.000000	0.000000	0.000000	0.000000	0.000000	1
54.213050	6.315140	0.000000	-0.005061	-0.011519	0.000000	0.012582	-2.595423	0.000000	0.000000	0.000000	0.000000	0.000000	1
57.322042	6.315140	0.000000	-0.004404	-0.008561	0.000000	0.009627	2.363172	0.000000	0.000000	0.000000	0.000000	0.000000	1
60.431034	6.315140	0.000000	0.000010	0.031260	0.000000	0.031260	15.139506	0.000000	0.000000	0.000000	0.000000	0.000000	1
63.540026	6.315140	0.000000	-0.026576	0.024587	0.000000	0.036205	78.906378	0.000000	0.000000	0.000000	0.000000	0.000000	2
66.649018	6.315140	0.000000	-0.414114	0.602257	0.000000	0.730892	94.816836	0.000000	0.000000	0.000000	0.000000	0.000000	2
69.758010	6.315140	0.000000	-0.573112	0.597034	0.000000	0.827590	28.579892	0.000000	0.000000	0.000000	0.000000	0.000000	1
72.867002	6.315140	0.000000	-0.585252	0.648346	0.000000	0.873425	-26.276306	0.000000	0.000000	0.000000	0.000000	0.000000	1
75.975994	6.315140	0.000000	-0.395626	0.505358	0.000000	0.641800	-133.334292	0.000000	0.000000	0.000000	0.000000	0.000000	2
79.084987	6.315140	0.000000	-0.027499	0.071221	0.000000	0.076346	-119.654666	0.000000	0.000000	0.000000	0.000000	0.000000	1
82.193979	6.315140	0.000000	-0.006814	0.029285	0.000000	0.030067	-26.137316	0.000000	0.000000	0.000000	0.000000	0.000000	1
85.302971	6.315140	0.000000	-0.004298	-0.033727	0.000000	0.034000	-16.217029	0.000000	0.000000	0.000000	0.000000	0.000000	1
88.411963	6.315140	0.000000	0.019249	-0.017844	0.000000	0.026248	-5.296394	0.000000	0.000000	0.000000	0.000000	0.000000	1
91.520955	6.315140	0.000000	0.010240	-0.032181	0.000000	0.033771	3.809499	0.000000	0.000000	0.000000	0.000000	0.000000	1
94.629947	6.315140	0.000000	-0.034452	-0.004328	0.000000	0.034722	6.729559	0.000000	0.000000	0.000000	0.000000	0.000000	1
97.738939	6.315140	0.000000	-0.020216	0.004498	0.000000	0.020710	-0.888185	0.000000	0.000000	0.000000	0.000000	0.000000	2
100.847931	6.315140	0.000000	-0.009842	0.004950	0.000000	0.011017	-1.887454	0.000000	0.000000	0.000000	0.000000	0.000000	2
103.956923	6.315140	0.000000	-0.006536	-0.002157	0.000000	0.006883	0.924410	0.000000	0.000000	0.000000	0.000000	0.000000	1
107.065915	6.315140	0.000000	-0.006247	0.000745	0.000000	0.006291	1.303599	0.000000	0.000000	0.000000	0.000000	0.000000	1
110.174908	6.315140	0.000000	-0.028543	0.011846	0.000000	0.030904	0.402642	0.000000	0.000000	0.000000	0.000000	0.000000	1
113.283900	6.315140	0.000000	-0.031247	0.010094	0.000000	0.032836	-0.720460	0.000000	0.000000	0.000000	0.000000	0.000000	1
116.392892	6.315140	0.000000	-0.016388	0.000852	0.000000	0.016410	0.126380	0.000000	0.000000	0.000000	0.000000	0.000000	1
119.501884	6.315140	0.000000	-0.007687	0.000549	0.000000	0.007706	1.132833	0.000000	0.000000	0.000000	0.000000	0.000000	1
122.610876	6.315140	0.000000	-0.009710	-0.000067	0.000000	0.009710	0.895633	0.000000	0.000000	0.000000	0.000000	0.000000	1
125.719868	6.315140	0.000000	-0.009209	-0.002170	0.000000	0.009462	0.762602	0.000000	0.000000	0.000000	0.000000	0.000000	1
128.828860	6.315140	0.000000	-0.003368	-0.000839	0.000000	0.003471	1.076588	0.000000	0.000000	0.000000	0.000000	0.000000	1
131.937852	6.315140	0.000000	-0.003894	0.001901	0.000000	0.004333	1.710069	0.000000	0.000000	0.000000	0.000000	0.000000	1
135.046844	6.315140	0.000000	-0.004995	0.003989	0.000000	0.006392	2.424439	0.000000	0.000000	0.000000	0.000000	0.000000	1
138.155836	6.315140	0.000000	-0.004941	0.008143	0.000000	0.009525	2.411916	0.000000	0.000000	0.000000	0.000000	0.000000	1
141.264829	6.315140	0.000000	-0.004703	0.008469	0.000000	0.009688	1.432583	0.000000	0.000000	0.000000	0.000000	0.000000	1
144.373821	6.315140	0.000000	-0.004302	0.009996	0.000000	0.010883	0.091341	0.000000	0.000000	0.000000	0.000000	0.000000	1
147.482813	6.315140	0.000000	-0.003057	0.008167	0.000000	0.008721	-0.667815	0.000000	0.000000	0.000000	0.000000	0.000000	1
150.591805	6.315140	0.000000	-0.002608	0.003972	0.000000	0.004752	-0.093915	0.000000	0.000000	0.000000	0.000000	0.000000	1
153.700797	6.315140	0.000000	-0.006207	0.006837	0.000000	0.009234	0.532901	0.000000	0.000000	0.000000	0.000000	0.000000	1
156.809789	6.315140	0.000000	-0.004725	0.006166	0.000000	0.007768	0.184490	0.000000	0.000000	0.000000	0.000000	0.000000	1
159.918781	6.315140	0.000000	-0.000984	0.003000	0.000000	0.003158	-0.056880	0.000000	0.000000	0.000000	0.000000	0.000000	1
4.469176	9.424132	0.000000	-0.001155	0.007230	0.000000	0.007322	2.658304	0.000000	0.000000	0.000000	0.000000	0.000000	1
7.578168	9.424132	0.000000	-0.000419	0.009496	0.000000	0.009505	1.908253	0.000000	0.000000	0.000000	0.000000	0.000000	1
10.687160	9.424132	0.000000	0.006305	0.009462	0.000000	0.011370	0.456041	0.000000	0.000000	0.000000	0.000000	0.000000	1
13.796152	9.424132	0.000000	0.002182	0.005597	0.000000	0.006007	-0.042257	0.000000	0.000000	0.000000	0.000000	0.000000	1
16.905145	9.424132	0.000000	0.001711	0.005051	0.000000	0.005333	0.168837	0.000000	0.000000	0.000000	0.000000	0.000000	1
20.014137	9.424132	0.000000	0.003677	0.008230	0.000000	0.009014	-0.245419	0.000000	0.000000	0.000000	0.000000	0.000000	1
23.123129	9.424132	0.000000	0.003210	0.008865	0.000000	0.009428	-0.305879	0.000000	0.000000	0.000000	0.000000	0.000000	1
26.232121	9.424132	0.000000	0.000089	0.011724	0.000000	0.011724	0.380677	0.000000	0.000000	0.000000	0.000000	0.000000	1
29.341113	9.424132	0.000000	0.013096	0.016005	0.000000	0.020680	-0.888915	0.000000	0.000000	0.000000	0.000000	0.000000	1
32.450105	9.424132	0.000000	0.009071	0.012574	0.000000	0.015504	-3.212759	0.000000	0.000000	0.000000	0.000000	0.000000	1
35.559097	9.424132	0.000000	-0.000321	0.004669	0.000000	0.004680	-2.535289	0.000000	0.000000	0.000000	0.000000	0.000000	1
38.668089	9.424132	0.000000	-0.000527	0.001229	0.000000	0.001337	-1.634932	0.000000	0.000000	0.000000	0.000000	0.000000	1
41.777081	9.424132	0.000000	-0.008828	-0.010394	0.000000	0.013637	0.483392	0.000000	0.000000	0.000000	0.000000	0.000000	1
44.886073	9.424132	0.000000	-0.005821	-0.009565	0.000000	0.011197	3.588387	0.000000	0.000000	0.000000	0.000000	0.000000	1
47.995066	9.424132	0.000000	0.004577	0.000964	0.000000	0.004678	1.429592	0.000000	0.000000	0.000000	0.000000	0.000000	1
51.104058	9.424132	0.000000	0.006556	-0.006157	0.000000	0.008994	-1.034661	0.000000	0.000000	0.000000	0.000000	0.000000	1
54.213050	9.424132	0.000000	0.005180	-0.007147	0.000000	0.008827	-1.495691	0.000000	0.000000	0.000000	0.000000	0.000000	1
57.322042	9.424132	0.000000	0.009809	-0.010770	0.000000	0.014568	7.710826	0.000000	0.000000	0.000000	0.000000	0.000000	1
60.431034	9.424132	0.000000	0.012063	0.031146	0.000000	0.033400	50.104412	0.000000	0.000000	0.000000	0.000000	0.000000	1
63.540026	9.424132	0.000000	-0.010745	0.354011	0.000000	0.354174	94.468556	0.000000	0.000000	0.000000	0.000000	0.000000	2
66.649018	9.424132	0.000000	-0.319873	0.640731	0.000000	0.716139	30.010706	0.000000	0.000000	0.000000	0.000000	0.000000	2
69.758010	9.424132	0.000000	-0.574806	0.519568	0.000000	0.774824	-39.072640	0.000000	0.000000	0.000000	0.000000	0.000000	1
72.867002	9.424132	0.000000	-0.521360	0.428851	0.000000	0.675077	-34.803288	0.000000	0.000000	0.000000	0.000000	0.000000	1
75.975994	9.424132	0.000000	-0.201276	0.438878	0.000000	0.482831	-80.910663	0.000000	0.000000	0.000000	0.000000	0.000000	2
79.084987	9.424132	0.000000	-0.006949	0.131748	0.000000	0.131932	-78.472673	0.000000	0.000000	0.000000	0.000000	0.000000	1
82.193979	9.424132	0.000000	0.003245	0.012572	0.000000	0.012984	-26.010093	0.000000	0.000000	0.000000	0.000000	0.000000	1
85.302971	9.424132	0.000000	0.047389	-0.019059	0.000000	0.051078	-10.655645	0.000000	0.000000	0.000000	0.000000	0.000000	1
88.411963	9.424132	0.000000	0.042251	-0.013781	0.000000	0.044442	1.739703	0.000000	0.000000	0.000000	0.000000	0.000000	1
91.520955	9.424132	0.000000	-0.000382	-0.005993	0.000000	0.006005	5.138526	0.000000	0.000000	0.000000	0.000000	0.000000	1
94.629947	9.424132	0.000000	-0.021280	0.006745	0.000000	0.022324	1.978894	0.000000	0.000000	0.000000	0.000000	0.000000	1
97.738939	9.424132	0.000000	0.007266	0.033038	0.000000	0.033828	-4.797128	0.000000	0.000000	0.000000	0.000000	0.000000	1
100.847931	9.424132	0.000000	-0.014698	0.003609	0.000000	0.015134	-4.570234	0.000000	0.000000	0.000000	0.000000	0.000000	1
103.956923	9.424132	0.000000	-0.008294	0.005775	0.000000	0.010107	-0.206778	0.000000	0.000000	0.000000	0.000000	0.000000	1
107.065915	9.424132	0.000000	-0.003753	0.005580	0.000000	0.006724	-0.531071	0.000000	0.000000	0.000000	0.000000	0.000000	1
110.174908	9.424132	0.000000	-0.005942	0.008256	0.000000	0.010172	-2.268360	0.000000	0.000000	0.000000	0.000000	0.000000	1
113.283900	9.424132	0.000000	-0.013674	0.004648	0.000000	0.014442	-3.491191	0.000000	0.000000	0.000000	0.000000	0.000000	1
116.392892	9.424132	0.000000	-0.010986	0.002130	0.000000	0.011191	-2.466453	0.000000	0.000000	0.000000	0.000000	0.000000	1
119.501884	9.424132	0.000000	-0.008569	0.000433	0.000000	0.008580	-0.892947	0.000000	0.000000	0.000000	0.000000	0.000000	1
122.610876	9.424132	0.000000	-0.006894	0.001558	0.000000	0.007068	-0.470647	0.000000	0.000000	0.000000	0.000000	0.000000	1
125.719868	9.424132	0.000000	-0.004585	0.001373	0.000000	0.004786	-0.478098	0.000000	0.000000	0.000000	0.000000	0.000000	1
128.828860	9.424132	0.000000	-0.002661	0.001115	0.000000	0.002885	0.531172	0.000000	0.000000	0.000000	0.000000	0.000000	1
131.937852	9.424132	0.000000	-0.001780	0.004543	0.000000	0.004880	1.764792	0.000000	0.000000	0.000000	0.000000	0.000000	1
135.046844	9.424132	0.000000	-0.011737	0.011060	0.000000	0.016127	2.012678	0.000000	0.000000	0.000000	0.000000	0.000000	1
138.155836	9.424132	0.000000	-0.012856	0.012845	0.000000	0.018174	1.097853	0.000000	0.000000	0.000000	0.000000	0.000000	1
141.264829	9.424132	0.000000	-0.011564	0.012759	0.000000	0.017219	-0.281005	0.000000	0.000000	0.000000	0.000000	0.000000	1
144.373821	9.424132	0.000000	-0.000308	0.005515	0.000000	0.005524	-0.539748	0.000000	0.000000	0.000000	0.000000	0.000000	1
147.482813	9.424132	0.000000	-0.004029	0.005926	0.000000	0.007166	0.065306	0.000000	0.000000	0.000000	0.000000	0.000000	1
150.591805	9.424132	0.000000	-0.002871	0.006178	0.000000	0.006813	0.053118	0.000000	0.000000	0.000000	0.000000	0.000000	1
153.700797	9.424132	0.000000	-0.005595	0.006129	0.000000	0.008298	0.475722	0.000000	0.000000	0.000000	0.000000	0.000000	1
156.809789	9.424132	0.000000	-0.008009	0.010143	0.000000	0.012924	0.880059	0.000000	0.000000	0.000000	0.000000	0.000000	1
159.918781	9.424132	0.000000	-0.008138	0.010438	0.000000	0.013236	0.693247	0.000000	0.000000	0.000000	0.000000	0.000000	1
4.469176	12.533124	0.000000	-0.001318	0.006447	0.000000	0.006580	0.263765	0.000000	0.000000	0.000000	0.000000	0.000000	1
7.578168	12.533124	0.000000	-0.005307	0.007580	0.000000	0.009253	1.294274	0.000000	0.000000	0.000000	0.000000	0.000000	1
10.687160	12.533124	0.000000	0.001086	0.004382	0.000000	0.004515	2.358290	0.000000	0.000000	0.000000	0.000000	0.000000	1
13.796152	12.533124	0.000000	-0.000288	0.007414	0.000000	0.007419	1.751329	0.000000	0.000000	0.000000	0.000000	0.000000	1
16.905145	12.533124	0.000000	0.000412	0.011536	0.000000	0.011543	1.046675	0.000000	0.000000	0.000000	0.000000	0.000000	1
20.014137	12.533124	0.000000	0.004248	0.012195	0.000000	0.012914	0.334778	0.000000	0.000000	0.000000	0.000000	0.000000	1
23.123129	12.533124	0.000000	0.004453	0.009552	0.000000	0.010539	-0.820682	0.000000	0.000000	0.000000	0.000000	0.000000	1
26.232121	12.533124	0.000000	0.001135	0.006437	0.000000	0.006536	0.055367	0.000000	0.000000	0.000000	0.000000	0.000000	1
29.341113	12.533124	0.000000	0.011760	0.014530	0.000000	0.018693	1.211168	0.000000	0.000000	0.000000	0.000000	0.000000	1
32.450105	12.533124	0.000000	0.009239	0.012265	0.000000	0.015355	0.256280	0.000000	0.000000	0.000000	0.000000	0.000000	1
35.559097	12.533124	0.000000	0.000517	0.004156	0.000000	0.004188	0.146662	0.000000	0.000000	0.000000	0.000000	0.000000	1
38.668089	12.533124	0.000000	-0.000720	0.001886	0.000000	0.002019	-2.120165	0.000000	0.000000	0.000000	0.000000	0.000000	1
41.777081	12.533124	0.000000	-0.013015	-0.013435	0.000000	0.018706	-0.778013	0.000000	0.000000	0.000000	0.000000	0.000000	1
44.886073	12.533124	0.000000	-0.011461	-0.003558	0.000000	0.012000	4.378420	0.000000	0.000000	0.000000	0.000000	0.000000	1
47.995066	12.533124	0.000000	-0.002451	0.008468	0.000000	0.008815	2.784346	0.000000	0.000000	0.000000	0.000000	0.000000	1
51.104058	12.533124	0.000000	0.001515	-0.001413	0.000000	0.002072	1.259292	0.000000	0.000000	0.000000	0.000000	0.000000	1
54.213050	12.533124	0.000000	0.001216	-0.001895	0.000000	0.002252	3.262169	0.000000	0.000000	0.000000	0.000000	0.000000	1
57.322042	12.533124	0.000000	0.009017	-0.004424	0.000000	0.010044	30.888430	0.000000	0.000000	0.000000	0.000000	0.000000	2
60.431034	12.533124	0.000000	0.004386	0.108017	0.000000	0.108106	105.700908	0.000000	0.000000	0.000000	0.000000	0.000000	2
63.540026	12.533124	0.000000	-0.095050	0.432760	0.000000	0.443076	118.824458	0.000000	0.000000	0.000000	0.000000	0.000000	2
66.649018	12.533124	0.000000	-0.351000	0.598012	0.000000	0.693412	28.809806	0.000000	0.000000	0.000000	0.000000	0.000000	2
69.758010	12.533124	0.000000	-0.475985	0.430504	0.000000	0.641791	-37.075858	0.000000	0.000000	0.000000	0.000000	0.000000	1
72.867002	12.533124	0.000000	-0.484709	0.361777	0.000000	0.604835	-29.633702	0.000000	0.000000	0.000000	0.000000	0.000000	1
75.975994	12.533124	0.000000	-0.114394	0.397376	0.000000	0.413514	-32.680610	0.000000	0.000000	0.000000	0.000000	0.000000	1
79.084987	12.533124	0.000000	-0.021095	0.190107	0.000000	0.191274	-42.868108	0.000000	0.000000	0.000000	0.000000	0.000000	1
82.193979	12.533124	0.000000	-0.008254	0.066889	0.000000	0.067396	-19.216571	0.000000	0.000000	0.000000	0.000000	0.000000	1
85.302971	12.533124	0.000000	0.042428	-0.000002	0.000000	0.042428	-1.277246	0.000000	0.000000	0.000000	0.000000	0.000000	1
88.411963	12.533124	0.000000	0.012198	-0.013341	0.000000	0.018077	6.731360	0.000000	0.000000	0.000000	0.000000	0.000000	2
91.520955	12.533124	0.000000	-0.013142	0.024832	0.000000	0.028095	4.441330	0.000000	0.000000	0.000000	0.000000	0.000000	1
94.629947	12.533124	0.000000	-0.012873	0.027658	0.000000	0.030507	-1.111221	0.000000	0.000000	0.000000	0.000000	0.000000	1
97.738939	12.533124	0.000000	0.011738	0.011039	0.000000	0.016113	-3.471759	0.000000	0.000000	0.000000	0.000000	0.000000	1
100.847931	12.533124	0.000000	0.003097	0.003766	0.000000	0.004876	-3.031101	0.000000	0.000000	0.000000	0.000000	0.000000	1
103.956923	12.533124	0.000000	-0.007712	0.015207	0.000000	0.017050	-2.410544	0.000000	0.000000	0.000000	0.000000	0.000000	1
107.065915	12.533124	0.000000	-0.005020	0.010701	0.000000	0.011820	-3.006348	0.000000	0.000000	0.000000	0.000000	0.000000	1
110.174908	12.533124	0.000000	-0.005975	0.006880	0.000000	0.009112	-1.761116	0.000000	0.000000	0.000000	0.000000	0.000000	1
113.283900	12.533124	0.000000	-0.013880	0.010527	0.000000	0.017420	-1.105691	0.000000	0.000000	0.000000	0.000000	0.000000	1
116.392892	12.533124	0.000000	-0.008397	0.008585	0.000000	0.012009	-1.432988	0.000000	0.000000	0.000000	0.000000	0.000000	1
119.501884	12.533124	0.000000	-0.004444	0.003746	0.000000	0.005812	-0.596855	0.000000	0.000000	0.000000	0.000000	0.000000	1
122.610876	12.533124	0.000000	-0.007423	0.005201	0.000000	0.009063	0.479592	0.000000	0.000000	0.000000	0.000000	0.000000	1
125.719868	12.533124	0.000000	-0.005418	0.004488	0.000000	0.007035	0.153628	0.000000	0.000000	0.000000	0.000000	0.000000	1
128.828860	12.533124	0.000000	-0.004575	0.003632	0.000000	0.005841	0.691761	0.000000	0.000000	0.000000	0.000000	0.000000	1
131.937852	12.533124	0.000000	-0.005907	0.006652	0.000000	0.008896	1.176136	0.000000	0.000000	0.000000	0.000000	0.000000	1
135.046844	12.533124	0.000000	-0.011853	0.010715	0.000000	0.015978	0.332315	0.000000	0.000000	0.000000	0.000000	0.000000	1
138.155836	12.533124	0.000000	-0.012017	0.011061	0.000000	0.016332	-1.102504	0.000000	0.000000	0.000000	0.000000	0.000000	1
141.264829	12.533124	0.000000	-0.005998	0.007839	0.000000	0.009871	-1.308283	0.000000	0.000000	0.000000	0.000000	0.000000	1
144.373821	12.533124	0.000000	-0.004687	0.006828	0.000000	0.008281	-0.414862	0.000000	0.000000	0.000000	0.000000	0.000000	1
147.482813	12.533124	0.000000	-0.004421	0.004955	0.000000	0.006640	-0.039954	0.000000	0.000000	0.000000	0.000000	0.000000	1
150.591805	12.533124	0.000000	-0.006176	0.006472	0.000000	0.008946	-0.576396	0.000000	0.000000	0.000000	0.000000	0.000000	1
153.700797	12.533124	0.000000	-0.002804	0.002104	0.000000	0.003506	-0.252837	0.000000	0.000000	0.000000	0.000000	0.000000	1
156.809789	12.533124	0.000000	-0.007195	0.008946	0.000000	0.011480	0.008145	0.000000	0.000000	0.000000	0.000000	0.000000	1
159.918781	12.533124	0.000000	-0.008203	0.010455	0.000000	0.013289	-0.535917	0.000000	0.000000	0.000000	0.000000	0.000000	1
4.469176	15.642117	0.000000	-0.000075	0.003346	0.000000	0.003347	-0.673185	0.000000	0.000000	0.000000	0.000000	0.000000	1
7.578168	15.642117	0.000000	0.003071	0.006663	0.000000	0.007337	1.866021	0.000000	0.000000	0.000000	0.000000	0.000000	1
10.687160	15.642117	0.000000	-0.013702	0.025489	0.000000	0.028938	2.806209	0.000000	0.000000	0.000000	0.000000	0.000000	1
13.796152	15.642117	0.000000	-0.010106	0.020739	0.000000	0.023071	-0.052385	0.000000	0.000000	0.000000	0.000000	0.000000	1
16.905145	15.642117	0.000000	-0.000679	0.012178	0.000000	0.012197	-0.034863	0.000000	0.000000	0.000000	0.000000	0.000000	1
20.014137	15.642117	0.000000	0.002694	0.016526	0.000000	0.016744	1.086888	0.000000	0.000000	0.000000	0.000000	0.000000	1
23.123129	15.642117	0.000000	0.006696	0.019788	0.000000	0.020891	-0.421966	0.000000	0.000000	0.000000	0.000000	0.000000	1
26.232121	15.642117	0.000000	0.003994	0.014028	0.000000	0.014586	-1.490677	0.000000	0.000000	0.000000	0.000000	0.000000	1
29.341113	15.642117	0.000000	0.000499	0.002767	0.000000	0.002811	-0.293630	0.000000	0.000000	0.000000	0.000000	0.000000	1
32.450105	15.642117	0.000000	0.000867	0.002154	0.000000	0.002321	1.049568	0.000000	0.000000	0.000000	0.000000	0.000000	1
35.559097	15.642117	0.000000	-0.001068	0.011473	0.000000	0.011523	2.207026	0.000000	0.000000	0.000000	0.000000	0.000000	1
38.668089	15.642117	0.000000	-0.003321	0.025411	0.000000	0.025627	-1.236964	0.000000	0.000000	0.000000	0.000000	0.000000	1
41.777081	15.642117	0.000000	-0.001293	0.010186	0.000000	0.010268	-0.150411	0.000000	0.000000	0.000000	0.000000	0.000000	1
44.886073	15.642117	0.000000	-0.024718	0.021123	0.000000	0.032514	2.889137	0.000000	0.000000	0.000000	0.000000	0.000000	1
47.995066	15.642117	0.000000	-0.022171	0.006918	0.000000	0.023225	0.099782	0.000000	0.000000	0.000000	0.000000	0.000000	1
51.104058	15.642117	0.000000	-0.010119	-0.006389	0.000000	0.011967	3.458525	0.000000	0.000000	0.000000	0.000000	0.000000	1
54.213050	15.642117	0.000000	-0.006025	-0.004229	0.000000	0.007361	16.512231	0.000000	0.000000	0.000000	0.000000	0.000000	1
57.322042	15.642117	0.000000	-0.032981	0.003506	0.000000	0.033167	63.552000	0.000000	0.000000	0.000000	0.000000	0.000000	2
60.431034	15.642117	0.000000	-0.204886	0.192176	0.000000	0.280909	169.645364	0.000000	0.000000	0.000000	0.000000	0.000000	2
63.540026	15.642117	0.000000	-0.257143	0.670266	0.000000	0.717899	141.624550	0.000000	0.000000	0.000000	0.000000	0.000000	1
66.649018	15.642117	0.000000	-0.561767	0.606367	0.000000	0.826597	14.656929	0.000000	0.000000	0.000000	0.000000	0.000000	2
69.758010	15.642117	0.000000	-0.554008	0.516391	0.000000	0.757354	-39.361727	0.000000	0.000000	0.000000	0.000000	0.000000	1
72.867002	15.642117	0.000000	-0.339899	0.349727	0.000000	0.487689	-44.351122	0.000000	0.000000	0.000000	0.000000	0.000000	1
75.975994	15.642117	0.000000	-0.232127	0.279155	0.000000	0.363057	-25.689466	0.000000	0.000000	0.000000	0.000000	0.000000	1
79.084987	15.642117	0.000000	-0.071830	0.232215	0.000000	0.243071	-29.112653	0.000000	0.000000	0.000000	0.000000	0.000000	2
82.193979	15.642117	0.000000	-0.036256	0.100107	0.000000	0.106470	-15.979213	0.000000	0.000000	0.000000	0.000000	0.000000	2
85.302971	15.642117	0.000000	-0.005275	0.088741	0.000000	0.088898	0.206033	0.000000	0.000000	0.000000	0.000000	0.000000	1
88.411963	15.642117	0.000000	-0.011346	0.056727	0.000000	0.057851	-1.556194	0.000000	0.000000	0.000000	0.000000	0.000000	1
91.520955	15.642117	0.000000	-0.005748	0.028207	0.000000	0.028786	-4.793574	0.000000	0.000000	0.000000	0.000000	0.000000	1
94.629947	15.642117	0.000000	-0.007872	0.013747	0.000000	0.015841	-4.525132	0.000000	0.000000	0.000000	0.000000	0.000000	1
97.738939	15.642117	0.000000	0.000419	0.003726	0.000000	0.003750	-0.161397	0.000000	0.000000	0.000000	0.000000	0.000000	1
100.847931	15.642117	0.000000	0.014088	0.006818	0.000000	0.015651	3.072308	0.000000	0.000000	0.000000	0.000000	0.000000	1
103.956923	15.642117	0.000000	0.017778	0.024061	0.000000	0.029917	1.501834	0.000000	0.000000	0.000000	0.000000	0.000000	1
107.065915	15.642117	0.000000	0.010304	0.026008	0.000000	0.027975	-2.361423	0.000000	0.000000	0.000000	0.000000	0.000000	1
110.174908	15.642117	0.000000	0.006005	0.029594	0.000000	0.030197	-6.619968	0.000000	0.000000	0.000000	0.000000	0.000000	1
113.283900	15.642117	0.000000	-0.018169	0.016943	0.000000	0.024843	-10.777528	0.000000	0.000000	0.000000	0.000000	0.000000	1
116.392892	15.642117	0.000000	-0.009212	0.009539	0.000000	0.013261	-7.475775	0.000000	0.000000	0.000000	0.000000	0.000000	1
119.501884	15.642117	0.000000	-0.002298	0.004402	0.000000	0.004966	-0.446501	0.000000	0.000000	0.000000	0.000000	0.000000	1