TITLE = "PIV Result  2599 "
VARIABLES = "X (mm)""Y (mm)""Z (mm)""U (m/s)""V (m/s)""W (m/s)""Speed (m/s)""Vorticity""U-std""V-std""W-std""Speed-std""Vorticity-std""Flag"
ZONE T="ZONE 2599 "
I= 51 , J= 16 , K= 1 , F=POINT
DT=(DOUBLE DOUBLE DOUBLE DOUBLE DOUBLE DOUBLE DOUBLE DOUBLE DOUBLE DOUBLE DOUBLE DOUBLE DOUBLE DOUBLE)
4.469176	3.206148	0.000000	-0.001589	0.008639	0.000000	0.008784	-1.084418	0.000000	0.000000	0.000000	0.000000	0.000000	1
7.578168	3.206148	0.000000	0.003141	0.007638	0.000000	0.008259	-0.392088	0.000000	0.000000	0.000000	0.000000	0.000000	1
10.687160	3.206148	0.000000	0.002985	0.007483	0.000000	0.008057	0.114700	0.000000	0.000000	0.000000	0.000000	0.000000	1
13.796152	3.206148	0.000000	0.003965	0.003992	0.000000	0.005627	-0.738782	0.000000	0.000000	0.000000	0.000000	0.000000	1
16.905145	3.206148	0.000000	0.004129	0.003671	0.000000	0.005525	-1.515881	0.000000	0.000000	0.000000	0.000000	0.000000	1
20.014137	3.206148	0.000000	0.004204	0.003635	0.000000	0.005558	-1.444320	0.000000	0.000000	0.000000	0.000000	0.000000	1
23.123129	3.206148	0.000000	0.003473	0.004507	0.000000	0.005690	-0.220436	0.000000	0.000000	0.000000	0.000000	0.000000	1
26.232121	3.206148	0.000000	0.003812	0.006143	0.000000	0.007230	1.814195	0.000000	0.000000	0.000000	0.000000	0.000000	1
29.341113	3.206148	0.000000	0.007480	0.013398	0.000000	0.015344	1.211881	0.000000	0.000000	0.000000	0.000000	0.000000	1
32.450105	3.206148	0.000000	0.004318	0.011565	0.000000	0.012345	-0.680769	0.000000	0.000000	0.000000	0.000000	0.000000	1
35.559097	3.206148	0.000000	0.004280	0.001187	0.000000	0.004441	-0.544338	0.000000	0.000000	0.000000	0.000000	0.000000	1
38.668089	3.206148	0.000000	0.002026	0.000542	0.000000	0.002097	-1.816487	0.000000	0.000000	0.000000	0.000000	0.000000	1
41.777081	3.206148	0.000000	0.000721	-0.000269	0.000000	0.000770	-4.176019	0.000000	0.000000	0.000000	0.000000	0.000000	1
44.886073	3.206148	0.000000	0.002596	0.001320	0.000000	0.002913	-5.849285	0.000000	0.000000	0.000000	0.000000	0.000000	1
47.995066	3.206148	0.000000	0.001246	0.002711	0.000000	0.002984	-7.119478	0.000000	0.000000	0.000000	0.000000	0.000000	1
51.104058	3.206148	0.000000	0.000095	0.001725	0.000000	0.001727	-5.955324	0.000000	0.000000	0.000000	0.000000	0.000000	1
54.213050	3.206148	0.000000	0.004907	0.001615	0.000000	0.005166	7.133826	0.000000	0.000000	0.000000	0.000000	0.000000	1
57.322042	3.206148	0.000000	0.000622	0.003192	0.000000	0.003252	46.307924	0.000000	0.000000	0.000000	0.000000	0.000000	1
60.431034	3.206148	0.000000	-0.049446	0.002994	0.000000	0.049537	106.206003	0.000000	0.000000	0.000000	0.000000	0.000000	2
63.540026	3.206148	0.000000	-0.169307	0.114163	0.000000	0.204201	153.282505	0.000000	0.000000	0.000000	0.000000	0.000000	2
66.649018	3.206148	0.000000	-0.410118	0.265561	0.000000	0.488589	147.903263	0.000000	0.000000	0.000000	0.000000	0.000000	2
69.758010	3.206148	0.000000	-0.766593	0.512652	0.000000	0.922213	86.824606	0.000000	0.000000	0.000000	0.000000	0.000000	2
72.867002	3.206148	0.000000	-0.759236	0.780677	0.000000	1.088988	5.606500	0.000000	0.000000	0.000000	0.000000	0.000000	2
75.975994	3.206148	0.000000	-0.542843	0.530872	0.000000	0.759278	-49.417071	0.000000	0.000000	0.000000	0.000000	0.000000	1
79.084987	3.206148	0.000000	-0.321052	0.378856	0.000000	0.496595	-86.643850	0.000000	0.000000	0.000000	0.000000	0.000000	1
82.193979	3.206148	0.000000	-0.036442	0.021390	0.000000	0.042256	-58.670708	0.000000	0.000000	0.000000	0.000000	0.000000	1
85.302971	3.206148	0.000000	-0.008731	0.000807	0.000000	0.008768	-8.383735	0.000000	0.000000	0.000000	0.000000	0.000000	1
88.411963	3.206148	0.000000	0.007839	-0.028204	0.000000	0.029273	-5.128438	0.000000	0.000000	0.000000	0.000000	0.000000	1
91.520955	3.206148	0.000000	-0.000288	-0.035772	0.000000	0.035773	-0.353504	0.000000	0.000000	0.000000	0.000000	0.000000	1
94.629947	3.206148	0.000000	-0.004186	-0.024809	0.000000	0.025159	3.442152	0.000000	0.000000	0.000000	0.000000	0.000000	1
97.738939	3.206148	0.000000	-0.006634	-0.000203	0.000000	0.006638	6.073542	0.000000	0.000000	0.000000	0.000000	0.000000	1
100.847931	3.206148	0.000000	-0.006043	0.001069	0.000000	0.006136	5.190205	0.000000	0.000000	0.000000	0.000000	0.000000	1
103.956923	3.206148	0.000000	-0.001503	-0.001144	0.000000	0.001889	2.993459	0.000000	0.000000	0.000000	0.000000	0.000000	1
107.065915	3.206148	0.000000	-0.004073	-0.001338	0.000000	0.004287	2.917012	0.000000	0.000000	0.000000	0.000000	0.000000	1
110.174908	3.206148	0.000000	-0.004262	0.000352	0.000000	0.004277	4.100655	0.000000	0.000000	0.000000	0.000000	0.000000	1
113.283900	3.206148	0.000000	0.001717	0.000490	0.000000	0.001786	3.720396	0.000000	0.000000	0.000000	0.000000	0.000000	1
116.392892	3.206148	0.000000	0.000597	-0.000012	0.000000	0.000597	3.662395	0.000000	0.000000	0.000000	0.000000	0.000000	1
119.501884	3.206148	0.000000	0.000149	-0.000016	0.000000	0.000150	3.973351	0.000000	0.000000	0.000000	0.000000	0.000000	1
122.610876	3.206148	0.000000	0.001644	-0.000088	0.000000	0.001647	2.647024	0.000000	0.000000	0.000000	0.000000	0.000000	1
125.719868	3.206148	0.000000	0.000951	-0.000495	0.000000	0.001072	1.685532	0.000000	0.000000	0.000000	0.000000	0.000000	1
128.828860	3.206148	0.000000	-0.001320	-0.000256	0.000000	0.001344	1.489592	0.000000	0.000000	0.000000	0.000000	0.000000	1
131.937852	3.206148	0.000000	-0.001468	0.000513	0.000000	0.001555	1.053744	0.000000	0.000000	0.000000	0.000000	0.000000	1
135.046844	3.206148	0.000000	-0.000985	0.004978	0.000000	0.005075	0.260961	0.000000	0.000000	0.000000	0.000000	0.000000	1
138.155836	3.206148	0.000000	0.000178	0.002112	0.000000	0.002119	2.150129	0.000000	0.000000	0.000000	0.000000	0.000000	1
141.264829	3.206148	0.000000	-0.002939	0.003363	0.000000	0.004466	4.370570	0.000000	0.000000	0.000000	0.000000	0.000000	1
144.373821	3.206148	0.000000	-0.015395	0.004019	0.000000	0.015911	2.117923	0.000000	0.000000	0.000000	0.000000	0.000000	1
147.482813	3.206148	0.000000	-0.008100	0.007073	0.000000	0.010753	0.038570	0.000000	0.000000	0.000000	0.000000	0.000000	1
150.591805	3.206148	0.000000	-0.003489	0.004962	0.000000	0.006066	-0.660787	0.000000	0.000000	0.000000	0.000000	0.000000	1
153.700797	3.206148	0.000000	-0.000091	0.000179	0.000000	0.000201	-0.448460	0.000000	0.000000	0.000000	0.000000	0.000000	1
156.809789	3.206148	0.000000	0.000285	0.000619	0.000000	0.000682	0.327407	0.000000	0.000000	0.000000	0.000000	0.000000	1
159.918781	3.206148	0.000000	-0.002584	0.002737	0.000000	0.003764	0.375981	0.000000	0.000000	0.000000	0.000000	0.000000	1
4.469176	6.315140	0.000000	0.001462	0.008738	0.000000	0.008860	-0.474014	0.000000	0.000000	0.000000	0.000000	0.000000	1
7.578168	6.315140	0.000000	0.003834	0.006740	0.000000	0.007754	0.322407	0.000000	0.000000	0.000000	0.000000	0.000000	1
10.687160	6.315140	0.000000	0.003338	0.009806	0.000000	0.010359	0.680076	0.000000	0.000000	0.000000	0.000000	0.000000	1
13.796152	6.315140	0.000000	0.003087	0.012331	0.000000	0.012712	-0.283750	0.000000	0.000000	0.000000	0.000000	0.000000	1
16.905145	6.315140	0.000000	0.009998	0.008896	0.000000	0.013383	-0.458784	0.000000	0.000000	0.000000	0.000000	0.000000	1
20.014137	6.315140	0.000000	0.009493	0.009985	0.000000	0.013777	-0.641255	0.000000	0.000000	0.000000	0.000000	0.000000	1
23.123129	6.315140	0.000000	0.001650	0.004722	0.000000	0.005002	-0.378637	0.000000	0.000000	0.000000	0.000000	0.000000	1
26.232121	6.315140	0.000000	0.001986	0.004552	0.000000	0.004966	1.534034	0.000000	0.000000	0.000000	0.000000	0.000000	1
29.341113	6.315140	0.000000	0.007504	0.012940	0.000000	0.014958	1.198962	0.000000	0.000000	0.000000	0.000000	0.000000	1
32.450105	6.315140	0.000000	0.001713	0.009816	0.000000	0.009964	-0.473925	0.000000	0.000000	0.000000	0.000000	0.000000	1
35.559097	6.315140	0.000000	-0.001340	0.005877	0.000000	0.006028	-0.786769	0.000000	0.000000	0.000000	0.000000	0.000000	1
38.668089	6.315140	0.000000	0.003241	0.001439	0.000000	0.003547	-1.918964	0.000000	0.000000	0.000000	0.000000	0.000000	1
41.777081	6.315140	0.000000	0.014377	-0.004790	0.000000	0.015154	-3.086165	0.000000	0.000000	0.000000	0.000000	0.000000	1
44.886073	6.315140	0.000000	0.018051	-0.007288	0.000000	0.019467	-3.336232	0.000000	0.000000	0.000000	0.000000	0.000000	1
47.995066	6.315140	0.000000	0.026713	-0.010478	0.000000	0.028695	-1.891275	0.000000	0.000000	0.000000	0.000000	0.000000	1
51.104058	6.315140	0.000000	0.019874	-0.010063	0.000000	0.022276	7.708841	0.000000	0.000000	0.000000	0.000000	0.000000	1
54.213050	6.315140	0.000000	0.015617	-0.007708	0.000000	0.017415	26.654148	0.000000	0.000000	0.000000	0.000000	0.000000	1
57.322042	6.315140	0.000000	-0.068398	0.049364	0.000000	0.084351	70.274894	0.000000	0.000000	0.000000	0.000000	0.000000	2
60.431034	6.315140	0.000000	-0.267656	0.221257	0.000000	0.347267	116.495761	0.000000	0.000000	0.000000	0.000000	0.000000	1
63.540026	6.315140	0.000000	-0.598583	0.324453	0.000000	0.680861	113.018644	0.000000	0.000000	0.000000	0.000000	0.000000	2
66.649018	6.315140	0.000000	-0.781309	0.416958	0.000000	0.885606	88.178580	0.000000	0.000000	0.000000	0.000000	0.000000	1
69.758010	6.315140	0.000000	-0.751878	0.608346	0.000000	0.967164	35.116680	0.000000	0.000000	0.000000	0.000000	0.000000	1
72.867002	6.315140	0.000000	-0.837685	0.561383	0.000000	1.008398	-41.290305	0.000000	0.000000	0.000000	0.000000	0.000000	2
75.975994	6.315140	0.000000	-0.515578	0.544931	0.000000	0.750180	-83.394559	0.000000	0.000000	0.000000	0.000000	0.000000	1
79.084987	6.315140	0.000000	-0.307608	0.338176	0.000000	0.457150	-101.173394	0.000000	0.000000	0.000000	0.000000	0.000000	2
82.193979	6.315140	0.000000	-0.036049	0.031455	0.000000	0.047843	-60.283319	0.000000	0.000000	0.000000	0.000000	0.000000	1
85.302971	6.315140	0.000000	-0.008850	0.000709	0.000000	0.008878	-10.326644	0.000000	0.000000	0.000000	0.000000	0.000000	1
88.411963	6.315140	0.000000	0.005514	-0.025381	0.000000	0.025973	-5.284459	0.000000	0.000000	0.000000	0.000000	0.000000	2
91.520955	6.315140	0.000000	0.002477	-0.028493	0.000000	0.028601	-0.680188	0.000000	0.000000	0.000000	0.000000	0.000000	2
94.629947	6.315140	0.000000	-0.003045	-0.028826	0.000000	0.028986	1.964794	0.000000	0.000000	0.000000	0.000000	0.000000	1
97.738939	6.315140	0.000000	-0.020939	-0.030514	0.000000	0.037007	3.488617	0.000000	0.000000	0.000000	0.000000	0.000000	1
100.847931	6.315140	0.000000	-0.014703	-0.015302	0.000000	0.021221	2.748007	0.000000	0.000000	0.000000	0.000000	0.000000	1
103.956923	6.315140	0.000000	-0.005427	-0.000577	0.000000	0.005458	0.474866	0.000000	0.000000	0.000000	0.000000	0.000000	1
107.065915	6.315140	0.000000	-0.012187	-0.000291	0.000000	0.012191	0.560219	0.000000	0.000000	0.000000	0.000000	0.000000	1
110.174908	6.315140	0.000000	-0.017699	0.000613	0.000000	0.017709	1.536245	0.000000	0.000000	0.000000	0.000000	0.000000	1
113.283900	6.315140	0.000000	-0.010094	0.002078	0.000000	0.010306	1.146041	0.000000	0.000000	0.000000	0.000000	0.000000	1
116.392892	6.315140	0.000000	-0.010735	-0.001145	0.000000	0.010796	1.226270	0.000000	0.000000	0.000000	0.000000	0.000000	1
119.501884	6.315140	0.000000	-0.014752	-0.001245	0.000000	0.014805	1.722868	0.000000	0.000000	0.000000	0.000000	0.000000	1
122.610876	6.315140	0.000000	-0.004683	0.000883	0.000000	0.004765	1.450525	0.000000	0.000000	0.000000	0.000000	0.000000	1
125.719868	6.315140	0.000000	-0.003903	-0.000256	0.000000	0.003911	1.532441	0.000000	0.000000	0.000000	0.000000	0.000000	1
128.828860	6.315140	0.000000	-0.003765	0.003532	0.000000	0.005163	1.690371	0.000000	0.000000	0.000000	0.000000	0.000000	1
131.937852	6.315140	0.000000	-0.002137	0.006848	0.000000	0.007173	1.385030	0.000000	0.000000	0.000000	0.000000	0.000000	1
135.046844	6.315140	0.000000	-0.002144	0.006461	0.000000	0.006808	0.571124	0.000000	0.000000	0.000000	0.000000	0.000000	1
138.155836	6.315140	0.000000	-0.003699	0.001630	0.000000	0.004042	1.713567	0.000000	0.000000	0.000000	0.000000	0.000000	1
141.264829	6.315140	0.000000	-0.015994	0.012848	0.000000	0.020515	2.612448	0.000000	0.000000	0.000000	0.000000	0.000000	1
144.373821	6.315140	0.000000	-0.021698	0.017786	0.000000	0.028056	-0.001695	0.000000	0.000000	0.000000	0.000000	0.000000	1
147.482813	6.315140	0.000000	-0.010549	0.007366	0.000000	0.012866	-0.822150	0.000000	0.000000	0.000000	0.000000	0.000000	1
150.591805	6.315140	0.000000	-0.004946	0.004663	0.000000	0.006798	-0.067417	0.000000	0.000000	0.000000	0.000000	0.000000	1
153.700797	6.315140	0.000000	-0.000555	0.000215	0.000000	0.000595	0.337607	0.000000	0.000000	0.000000	0.000000	0.000000	1
156.809789	6.315140	0.000000	-0.000290	0.000470	0.000000	0.000552	0.720505	0.000000	0.000000	0.000000	0.000000	0.000000	1
159.918781	6.315140	0.000000	-0.001449	0.001250	0.000000	0.001913	0.638231	0.000000	0.000000	0.000000	0.000000	0.000000	1
4.469176	9.424132	0.000000	-0.000977	0.006756	0.000000	0.006827	0.206003	0.000000	0.000000	0.000000	0.000000	0.000000	1
7.578168	9.424132	0.000000	0.000910	0.004240	0.000000	0.004336	0.959881	0.000000	0.000000	0.000000	0.000000	0.000000	1
10.687160	9.424132	0.000000	0.001532	0.008491	0.000000	0.008628	1.122681	0.000000	0.000000	0.000000	0.000000	0.000000	1
13.796152	9.424132	0.000000	0.004013	0.008528	0.000000	0.009425	0.349718	0.000000	0.000000	0.000000	0.000000	0.000000	1
16.905145	9.424132	0.000000	0.006359	0.007940	0.000000	0.010172	0.932631	0.000000	0.000000	0.000000	0.000000	0.000000	1
20.014137	9.424132	0.000000	0.007042	0.009515	0.000000	0.011838	0.986183	0.000000	0.000000	0.000000	0.000000	0.000000	1
23.123129	9.424132	0.000000	0.000599	0.004536	0.000000	0.004576	0.725355	0.000000	0.000000	0.000000	0.000000	0.000000	1
26.232121	9.424132	0.000000	0.000881	0.002613	0.000000	0.002758	1.713894	0.000000	0.000000	0.000000	0.000000	0.000000	1
29.341113	9.424132	0.000000	0.006286	0.007432	0.000000	0.009734	1.033217	0.000000	0.000000	0.000000	0.000000	0.000000	1
32.450105	9.424132	0.000000	0.000271	0.007117	0.000000	0.007122	-0.375793	0.000000	0.000000	0.000000	0.000000	0.000000	1
35.559097	9.424132	0.000000	-0.002601	0.005811	0.000000	0.006367	-0.913671	0.000000	0.000000	0.000000	0.000000	0.000000	1
38.668089	9.424132	0.000000	0.005815	0.001304	0.000000	0.005959	-2.016253	0.000000	0.000000	0.000000	0.000000	0.000000	1
41.777081	9.424132	0.000000	0.018272	-0.000879	0.000000	0.018293	-1.593735	0.000000	0.000000	0.000000	0.000000	0.000000	1
44.886073	9.424132	0.000000	0.020634	-0.001848	0.000000	0.020716	1.416664	0.000000	0.000000	0.000000	0.000000	0.000000	1
47.995066	9.424132	0.000000	0.019001	-0.004080	0.000000	0.019434	11.757448	0.000000	0.000000	0.000000	0.000000	0.000000	1
51.104058	9.424132	0.000000	0.002079	0.011788	0.000000	0.011969	41.058430	0.000000	0.000000	0.000000	0.000000	0.000000	1
54.213050	9.424132	0.000000	-0.101102	0.098923	0.000000	0.141448	75.115995	0.000000	0.000000	0.000000	0.000000	0.000000	2
57.322042	9.424132	0.000000	-0.201846	0.141905	0.000000	0.246736	101.455680	0.000000	0.000000	0.000000	0.000000	0.000000	1
60.431034	9.424132	0.000000	-0.635148	0.290842	0.000000	0.698571	104.005388	0.000000	0.000000	0.000000	0.000000	0.000000	1
63.540026	9.424132	0.000000	-0.698565	0.475106	0.000000	0.844819	38.788594	0.000000	0.000000	0.000000	0.000000	0.000000	1
66.649018	9.424132	0.000000	-0.787100	0.426672	0.000000	0.895308	-13.722271	0.000000	0.000000	0.000000	0.000000	0.000000	1
69.758010	9.424132	0.000000	-0.719842	0.465536	0.000000	0.857261	-44.667485	0.000000	0.000000	0.000000	0.000000	0.000000	1
72.867002	9.424132	0.000000	-0.529561	0.442322	0.000000	0.689988	-92.901154	0.000000	0.000000	0.000000	0.000000	0.000000	2
75.975994	9.424132	0.000000	-0.279620	0.316499	0.000000	0.422325	-107.140423	0.000000	0.000000	0.000000	0.000000	0.000000	1
79.084987	9.424132	0.000000	-0.116317	0.177222	0.000000	0.211984	-90.998573	0.000000	0.000000	0.000000	0.000000	0.000000	2
82.193979	9.424132	0.000000	-0.007934	0.037748	0.000000	0.038573	-43.608962	0.000000	0.000000	0.000000	0.000000	0.000000	1
85.302971	9.424132	0.000000	0.006699	0.008021	0.000000	0.010450	-7.555921	0.000000	0.000000	0.000000	0.000000	0.000000	1
88.411963	9.424132	0.000000	0.012146	0.007844	0.000000	0.014459	-2.848653	0.000000	0.000000	0.000000	0.000000	0.000000	1
91.520955	9.424132	0.000000	0.002005	-0.002095	0.000000	0.002900	0.497992	0.000000	0.000000	0.000000	0.000000	0.000000	1
94.629947	9.424132	0.000000	-0.000086	0.007412	0.000000	0.007413	0.079009	0.000000	0.000000	0.000000	0.000000	0.000000	1
97.738939	9.424132	0.000000	-0.017884	0.014487	0.000000	0.023016	-1.534192	0.000000	0.000000	0.000000	0.000000	0.000000	1
100.847931	9.424132	0.000000	0.000793	0.029691	0.000000	0.029702	-0.983679	0.000000	0.000000	0.000000	0.000000	0.000000	1
103.956923	9.424132	0.000000	-0.002433	0.025394	0.000000	0.025510	-2.220755	0.000000	0.000000	0.000000	0.000000	0.000000	1
107.065915	9.424132	0.000000	-0.009250	0.013686	0.000000	0.016519	-1.124907	0.000000	0.000000	0.000000	0.000000	0.000000	1
110.174908	9.424132	0.000000	-0.018214	0.010215	0.000000	0.020883	-1.086328	0.000000	0.000000	0.000000	0.000000	0.000000	1
113.283900	9.424132	0.000000	-0.007632	0.002900	0.000000	0.008164	-2.303328	0.000000	0.000000	0.000000	0.000000	0.000000	1
116.392892	9.424132	0.000000	-0.010387	-0.001032	0.000000	0.010438	-1.946260	0.000000	0.000000	0.000000	0.000000	0.000000	1
119.501884	9.424132	0.000000	-0.010473	-0.001386	0.000000	0.010564	-0.878444	0.000000	0.000000	0.000000	0.000000	0.000000	1
122.610876	9.424132	0.000000	-0.004198	-0.000231	0.000000	0.004204	0.966522	0.000000	0.000000	0.000000	0.000000	0.000000	1
125.719868	9.424132	0.000000	-0.007076	0.002860	0.000000	0.007633	1.851996	0.000000	0.000000	0.000000	0.000000	0.000000	1
128.828860	9.424132	0.000000	-0.005127	0.007049	0.000000	0.008716	1.558178	0.000000	0.000000	0.000000	0.000000	0.000000	1
131.937852	9.424132	0.000000	-0.005614	0.009899	0.000000	0.011380	1.170156	0.000000	0.000000	0.000000	0.000000	0.000000	1
135.046844	9.424132	0.000000	-0.009706	0.009585	0.000000	0.013641	0.372009	0.000000	0.000000	0.000000	0.000000	0.000000	1
138.155836	9.424132	0.000000	-0.007499	0.003673	0.000000	0.008350	0.675052	0.000000	0.000000	0.000000	0.000000	0.000000	1
141.264829	9.424132	0.000000	-0.012664	0.007246	0.000000	0.014590	0.450740	0.000000	0.000000	0.000000	0.000000	0.000000	1
144.373821	9.424132	0.000000	-0.014128	0.008571	0.000000	0.016524	-1.981902	0.000000	0.000000	0.000000	0.000000	0.000000	1
147.482813	9.424132	0.000000	-0.008924	0.006441	0.000000	0.011006	-1.758046	0.000000	0.000000	0.000000	0.000000	0.000000	1
150.591805	9.424132	0.000000	-0.010053	0.006477	0.000000	0.011959	-0.147726	0.000000	0.000000	0.000000	0.000000	0.000000	1
153.700797	9.424132	0.000000	-0.007471	0.004627	0.000000	0.008788	0.872672	0.000000	0.000000	0.000000	0.000000	0.000000	1
156.809789	9.424132	0.000000	-0.004125	0.001870	0.000000	0.004529	2.158206	0.000000	0.000000	0.000000	0.000000	0.000000	1
159.918781	9.424132	0.000000	-0.003402	0.000900	0.000000	0.003519	2.605969	0.000000	0.000000	0.000000	0.000000	0.000000	1
4.469176	12.533124	0.000000	-0.003238	0.002176	0.000000	0.003901	0.031523	0.000000	0.000000	0.000000	0.000000	0.000000	1
7.578168	12.533124	0.000000	0.000483	0.003718	0.000000	0.003749	0.328784	0.000000	0.000000	0.000000	0.000000	0.000000	1
10.687160	12.533124	0.000000	0.000254	0.007026	0.000000	0.007030	0.571003	0.000000	0.000000	0.000000	0.000000	0.000000	1
13.796152	12.533124	0.000000	0.002428	0.007295	0.000000	0.007688	0.893892	0.000000	0.000000	0.000000	0.000000	0.000000	1
16.905145	12.533124	0.000000	0.002909	0.006247	0.000000	0.006891	1.573594	0.000000	0.000000	0.000000	0.000000	0.000000	1
20.014137	12.533124	0.000000	-0.001022	0.005515	0.000000	0.005609	1.432835	0.000000	0.000000	0.000000	0.000000	0.000000	1
23.123129	12.533124	0.000000	-0.005026	0.006964	0.000000	0.008588	0.714351	0.000000	0.000000	0.000000	0.000000	0.000000	1
26.232121	12.533124	0.000000	-0.009084	0.007856	0.000000	0.012009	0.112827	0.000000	0.000000	0.000000	0.000000	0.000000	1
29.341113	12.533124	0.000000	0.005166	0.004429	0.000000	0.006804	-0.090181	0.000000	0.000000	0.000000	0.000000	0.000000	1
32.450105	12.533124	0.000000	0.001463	0.003287	0.000000	0.003598	-0.156702	0.000000	0.000000	0.000000	0.000000	0.000000	1
35.559097	12.533124	0.000000	-0.001852	0.002037	0.000000	0.002753	-0.704159	0.000000	0.000000	0.000000	0.000000	0.000000	1
38.668089	12.533124	0.000000	0.000599	-0.003351	0.000000	0.003404	-2.013849	0.000000	0.000000	0.000000	0.000000	0.000000	1
41.777081	12.533124	0.000000	0.020819	-0.023418	0.000000	0.031335	7.244697	0.000000	0.000000	0.000000	0.000000	0.000000	1
44.886073	12.533124	0.000000	0.022743	-0.013025	0.000000	0.026209	30.492089	0.000000	0.000000	0.000000	0.000000	0.000000	1
47.995066	12.533124	0.000000	0.018394	0.031413	0.000000	0.036402	52.874055	0.000000	0.000000	0.000000	0.000000	0.000000	1
51.104058	12.533124	0.000000	-0.117588	0.105500	0.000000	0.157978	68.129369	0.000000	0.000000	0.000000	0.000000	0.000000	2
54.213050	12.533124	0.000000	-0.308290	0.236693	0.000000	0.388672	94.107251	0.000000	0.000000	0.000000	0.000000	0.000000	2
57.322042	12.533124	0.000000	-0.550572	0.386676	0.000000	0.672791	78.843330	0.000000	0.000000	0.000000	0.000000	0.000000	1
60.431034	12.533124	0.000000	-0.735705	0.390994	0.000000	0.833149	26.940305	0.000000	0.000000	0.000000	0.000000	0.000000	1
63.540026	12.533124	0.000000	-0.706637	0.505682	0.000000	0.868936	-32.791775	0.000000	0.000000	0.000000	0.000000	0.000000	1
66.649018	12.533124	0.000000	-0.616542	0.368992	0.000000	0.718526	-67.624003	0.000000	0.000000	0.000000	0.000000	0.000000	1
69.758010	12.533124	0.000000	-0.578967	0.294019	0.000000	0.649346	-61.220141	0.000000	0.000000	0.000000	0.000000	0.000000	1
72.867002	12.533124	0.000000	-0.207068	0.223504	0.000000	0.304682	-67.533130	0.000000	0.000000	0.000000	0.000000	0.000000	1
75.975994	12.533124	0.000000	-0.118889	0.175704	0.000000	0.212148	-70.201717	0.000000	0.000000	0.000000	0.000000	0.000000	2
79.084987	12.533124	0.000000	-0.004254	0.039462	0.000000	0.039691	-47.521457	0.000000	0.000000	0.000000	0.000000	0.000000	1
82.193979	12.533124	0.000000	-0.002731	0.020079	0.000000	0.020264	-14.528201	0.000000	0.000000	0.000000	0.000000	0.000000	1
85.302971	12.533124	0.000000	0.006461	0.015989	0.000000	0.017245	-0.785079	0.000000	0.000000	0.000000	0.000000	0.000000	1
88.411963	12.533124	0.000000	0.003352	0.010570	0.000000	0.011089	-1.195057	0.000000	0.000000	0.000000	0.000000	0.000000	1
91.520955	12.533124	0.000000	0.000466	0.003547	0.000000	0.003577	-0.838014	0.000000	0.000000	0.000000	0.000000	0.000000	1
94.629947	12.533124	0.000000	0.011155	0.035279	0.000000	0.037000	0.608253	0.000000	0.000000	0.000000	0.000000	0.000000	1
97.738939	12.533124	0.000000	0.012570	0.034267	0.000000	0.036500	0.146434	0.000000	0.000000	0.000000	0.000000	0.000000	2
100.847931	12.533124	0.000000	0.001125	0.036087	0.000000	0.036104	-1.951949	0.000000	0.000000	0.000000	0.000000	0.000000	1
103.956923	12.533124	0.000000	-0.002694	0.025950	0.000000	0.026089	-3.861574	0.000000	0.000000	0.000000	0.000000	0.000000	1
107.065915	12.533124	0.000000	-0.013315	0.018018	0.000000	0.022404	-1.117924	0.000000	0.000000	0.000000	0.000000	0.000000	1
110.174908	12.533124	0.000000	-0.021496	0.023819	0.000000	0.032084	-2.315714	0.000000	0.000000	0.000000	0.000000	0.000000	1
113.283900	12.533124	0.000000	-0.004461	0.007114	0.000000	0.008397	-3.600438	0.000000	0.000000	0.000000	0.000000	0.000000	1
116.392892	12.533124	0.000000	-0.003512	0.005475	0.000000	0.006505	-1.019498	0.000000	0.000000	0.000000	0.000000	0.000000	1
119.501884	12.533124	0.000000	-0.003199	0.002233	0.000000	0.003901	-0.218373	0.000000	0.000000	0.000000	0.000000	0.000000	1
122.610876	12.533124	0.000000	-0.009464	0.005543	0.000000	0.010967	-0.689575	0.000000	0.000000	0.000000	0.000000	0.000000	1
125.719868	12.533124	0.000000	-0.013636	0.009049	0.000000	0.016366	-3.296826	0.000000	0.000000	0.000000	0.000000	0.000000	1
128.828860	12.533124	0.000000	-0.007045	0.006869	0.000000	0.009840	-4.200812	0.000000	0.000000	0.000000	0.000000	0.000000	1
131.937852	12.533124	0.000000	-0.006539	0.005926	0.000000	0.008824	-1.016186	0.000000	0.000000	0.000000	0.000000	0.000000	1
135.046844	12.533124	0.000000	-0.008778	0.009252	0.000000	0.012754	0.381377	0.000000	0.000000	0.000000	0.000000	0.000000	1
138.155836	12.533124	0.000000	-0.010755	0.008119	0.000000	0.013475	-0.031971	0.000000	0.000000	0.000000	0.000000	0.000000	1
141.264829	12.533124	0.000000	-0.011115	0.008466	0.000000	0.013972	0.028850	0.000000	0.000000	0.000000	0.000000	0.000000	1
144.373821	12.533124	0.000000	-0.009563	0.008213	0.000000	0.012606	0.425664	0.000000	0.000000	0.000000	0.000000	0.000000	1
147.482813	12.533124	0.000000	-0.004364	0.001595	0.000000	0.004647	1.742916	0.000000	0.000000	0.000000	0.000000	0.000000	1
150.591805	12.533124	0.000000	-0.009751	0.001496	0.000000	0.009866	0.991067	0.000000	0.000000	0.000000	0.000000	0.000000	1
153.700797	12.533124	0.000000	-0.004092	0.001736	0.000000	0.004446	0.993268	0.000000	0.000000	0.000000	0.000000	0.000000	1
156.809789	12.533124	0.000000	-0.014036	0.010983	0.000000	0.017822	2.503262	0.000000	0.000000	0.000000	0.000000	0.000000	1
159.918781	12.533124	0.000000	-0.018190	0.014064	0.000000	0.022993	2.539199	0.000000	0.000000	0.000000	0.000000	0.000000	1
4.469176	15.642117	0.000000	-0.001271	0.001903	0.000000	0.002288	-0.205676	0.000000	0.000000	0.000000	0.000000	0.000000	1
7.578168	15.642117	0.000000	0.005801	0.006325	0.000000	0.008582	-0.174709	0.000000	0.000000	0.000000	0.000000	0.000000	1
10.687160	15.642117	0.000000	0.001449	0.008050	0.000000	0.008179	-0.317342	0.000000	0.000000	0.000000	0.000000	0.000000	1
13.796152	15.642117	0.000000	-0.002146	0.007649	0.000000	0.007944	0.028969	0.000000	0.000000	0.000000	0.000000	0.000000	1
16.905145	15.642117	0.000000	-0.005346	0.008285	0.000000	0.009860	0.703233	0.000000	0.000000	0.000000	0.000000	0.000000	1
20.014137	15.642117	0.000000	-0.004466	0.008283	0.000000	0.009410	0.280340	0.000000	0.000000	0.000000	0.000000	0.000000	1
23.123129	15.642117	0.000000	-0.001041	0.009530	0.000000	0.009587	-0.844969	0.000000	0.000000	0.000000	0.000000	0.000000	1
26.232121	15.642117	0.000000	-0.001800	0.010800	0.000000	0.010949	-1.585709	0.000000	0.000000	0.000000	0.000000	0.000000	1
29.341113	15.642117	0.000000	-0.000041	0.001182	0.000000	0.001183	-0.911866	0.000000	0.000000	0.000000	0.000000	0.000000	1
32.450105	15.642117	0.000000	-0.000828	-0.003243	0.000000	0.003347	0.042034	0.000000	0.000000	0.000000	0.000000	0.000000	1
35.559097	15.642117	0.000000	-0.000787	-0.003023	0.000000	0.003123	-0.563306	0.000000	0.000000	0.000000	0.000000	0.000000	1
38.668089	15.642117	0.000000	-0.009834	-0.014787	0.000000	0.017759	6.820701	0.000000	0.000000	0.000000	0.000000	0.000000	1
41.777081	15.642117	0.000000	0.009655	-0.033611	0.000000	0.034970	39.057074	0.000000	0.000000	0.000000	0.000000	0.000000	1
44.886073	15.642117	0.000000	-0.068580	0.065807	0.000000	0.095046	77.108603	0.000000	0.000000	0.000000	0.000000	0.000000	2
47.995066	15.642117	0.000000	-0.218598	0.193684	0.000000	0.292059	91.360920	0.000000	0.000000	0.000000	0.000000	0.000000	1
51.104058	15.642117	0.000000	-0.292440	0.271272	0.000000	0.398886	86.640193	0.000000	0.000000	0.000000	0.000000	0.000000	1
54.213050	15.642117	0.000000	-0.352197	0.296902	0.000000	0.460645	111.148852	0.000000	0.000000	0.000000	0.000000	0.000000	1
57.322042	15.642117	0.000000	-0.641911	0.682665	0.000000	0.937060	64.830117	0.000000	0.000000	0.000000	0.000000	0.000000	1
60.431034	15.642117	0.000000	-0.615041	0.646255	0.000000	0.892144	-46.552606	0.000000	0.000000	0.000000	0.000000	0.000000	1
63.540026	15.642117	0.000000	-0.588153	0.492073	0.000000	0.766850	-89.139063	0.000000	0.000000	0.000000	0.000000	0.000000	1
66.649018	15.642117	0.000000	-0.480034	0.286829	0.000000	0.559199	-76.184972	0.000000	0.000000	0.000000	0.000000	0.000000	1
69.758010	15.642117	0.000000	-0.415745	0.271668	0.000000	0.496636	-42.974771	0.000000	0.000000	0.000000	0.000000	0.000000	1
72.867002	15.642117	0.000000	-0.227143	0.257168	0.000000	0.343117	-38.132833	0.000000	0.000000	0.000000	0.000000	0.000000	1
75.975994	15.642117	0.000000	-0.047610	0.118592	0.000000	0.127792	-40.303015	0.000000	0.000000	0.000000	0.000000	0.000000	2
79.084987	15.642117	0.000000	0.011906	0.038954	0.000000	0.040733	-18.641792	0.000000	0.000000	0.000000	0.000000	0.000000	1
82.193979	15.642117	0.000000	0.016019	0.039049	0.000000	0.042207	1.608373	0.000000	0.000000	0.000000	0.000000	0.000000	1
85.302971	15.642117	0.000000	-0.001448	0.061738	0.000000	0.061755	4.004350	0.000000	0.000000	0.000000	0.000000	0.000000	1
88.411963	15.642117	0.000000	-0.018963	0.044995	0.000000	0.048827	-4.174947	0.000000	0.000000	0.000000	0.000000	0.000000	1
91.520955	15.642117	0.000000	0.029504	0.024148	0.000000	0.038126	-6.187519	0.000000	0.000000	0.000000	0.000000	0.000000	1
94.629947	15.642117	0.000000	0.032295	0.031435	0.000000	0.045068	1.752312	0.000000	0.000000	0.000000	0.000000	0.000000	1
97.738939	15.642117	0.000000	-0.009865	0.061536	0.000000	0.062321	3.084078	0.000000	0.000000	0.000000	0.000000	0.000000	1
100.847931	15.642117	0.000000	0.006998	0.065807	0.000000	0.066178	-4.851340	0.000000	0.000000	0.000000	0.000000	0.000000	1
103.956923	15.642117	0.000000	0.002010	0.043585	0.000000	0.043632	-7.662589	0.000000	0.000000	0.000000	0.000000	0.000000	1
107.065915	15.642117	0.000000	-0.012811	0.033432	0.000000	0.035803	-3.766373	0.000000	0.000000	0.000000	0.000000	0.000000	1
110.174908	15.642117	0.000000	-0.018287	0.032467	0.000000	0.037263	-3.743082	0.000000	0.000000	0.000000	0.000000	0.000000	1
113.283900	15.642117	0.000000	-0.003745	0.008610	0.000000	0.009389	-2.355004	0.000000	0.000000	0.000000	0.000000	0.000000	1
116.392892	15.642117	0.000000	-0.003270	0.005670	0.000000	0.006545	1.563949	0.000000	0.000000	0.000000	0.000000	0.000000	1
119.501884	15.642117	0.000000	0.003321	0.029217	0.000000	0.029405	0.301493	0.000000	0.000000	0.000000	0.000000	0.000000	1