TITLE = "PIV Result  991 "
VARIABLES = "X (mm)""Y (mm)""Z (mm)""U (m/s)""V (m/s)""W (m/s)""Speed (m/s)""Vorticity""U-std""V-std""W-std""Speed-std""Vorticity-std""Flag"
ZONE T="ZONE 991 "
I= 51 , J= 16 , K= 1 , F=POINT
DT=(DOUBLE DOUBLE DOUBLE DOUBLE DOUBLE DOUBLE DOUBLE DOUBLE DOUBLE DOUBLE DOUBLE DOUBLE DOUBLE DOUBLE)
4.469176	3.206148	0.000000	0.002631	0.011340	0.000000	0.011641	1.820097	0.000000	0.000000	0.000000	0.000000	0.000000	2
7.578168	3.206148	0.000000	0.004762	0.007662	0.000000	0.009021	0.698219	0.000000	0.000000	0.000000	0.000000	0.000000	1
10.687160	3.206148	0.000000	-0.000275	0.005738	0.000000	0.005745	0.200505	0.000000	0.000000	0.000000	0.000000	0.000000	1
13.796152	3.206148	0.000000	-0.000850	0.005465	0.000000	0.005531	-0.249631	0.000000	0.000000	0.000000	0.000000	0.000000	1
16.905145	3.206148	0.000000	-0.005145	0.001610	0.000000	0.005391	-2.758955	0.000000	0.000000	0.000000	0.000000	0.000000	1
20.014137	3.206148	0.000000	-0.008450	0.002159	0.000000	0.008722	-3.172990	0.000000	0.000000	0.000000	0.000000	0.000000	1
23.123129	3.206148	0.000000	-0.001865	0.014067	0.000000	0.014190	-1.832887	0.000000	0.000000	0.000000	0.000000	0.000000	1
26.232121	3.206148	0.000000	0.001275	0.011143	0.000000	0.011215	-0.974556	0.000000	0.000000	0.000000	0.000000	0.000000	1
29.341113	3.206148	0.000000	0.008336	0.010758	0.000000	0.013610	-1.306511	0.000000	0.000000	0.000000	0.000000	0.000000	1
32.450105	3.206148	0.000000	0.009880	0.011378	0.000000	0.015069	-2.920686	0.000000	0.000000	0.000000	0.000000	0.000000	1
35.559097	3.206148	0.000000	0.000592	-0.002620	0.000000	0.002686	-3.227307	0.000000	0.000000	0.000000	0.000000	0.000000	1
38.668089	3.206148	0.000000	0.000691	-0.001174	0.000000	0.001362	-2.350082	0.000000	0.000000	0.000000	0.000000	0.000000	1
41.777081	3.206148	0.000000	0.003465	-0.000399	0.000000	0.003488	-2.375202	0.000000	0.000000	0.000000	0.000000	0.000000	1
44.886073	3.206148	0.000000	0.000365	-0.000827	0.000000	0.000904	-2.101079	0.000000	0.000000	0.000000	0.000000	0.000000	1
47.995066	3.206148	0.000000	-0.000928	-0.000512	0.000000	0.001060	-1.587556	0.000000	0.000000	0.000000	0.000000	0.000000	1
51.104058	3.206148	0.000000	-0.000544	-0.000990	0.000000	0.001129	-0.757766	0.000000	0.000000	0.000000	0.000000	0.000000	1
54.213050	3.206148	0.000000	0.001223	0.000349	0.000000	0.001272	1.758292	0.000000	0.000000	0.000000	0.000000	0.000000	1
57.322042	3.206148	0.000000	-0.003704	0.000899	0.000000	0.003812	7.149336	0.000000	0.000000	0.000000	0.000000	0.000000	1
60.431034	3.206148	0.000000	-0.009930	-0.001253	0.000000	0.010009	16.948068	0.000000	0.000000	0.000000	0.000000	0.000000	1
63.540026	3.206148	0.000000	-0.038745	0.016692	0.000000	0.042187	19.513612	0.000000	0.000000	0.000000	0.000000	0.000000	1
66.649018	3.206148	0.000000	-0.063628	0.016863	0.000000	0.065825	14.408708	0.000000	0.000000	0.000000	0.000000	0.000000	1
69.758010	3.206148	0.000000	-0.049498	0.008487	0.000000	0.050220	14.114089	0.000000	0.000000	0.000000	0.000000	0.000000	2
72.867002	3.206148	0.000000	-0.057044	0.024516	0.000000	0.062089	32.966818	0.000000	0.000000	0.000000	0.000000	0.000000	2
75.975994	3.206148	0.000000	-0.195402	0.033644	0.000000	0.198277	40.120296	0.000000	0.000000	0.000000	0.000000	0.000000	2
79.084987	3.206148	0.000000	-0.188989	0.254662	0.000000	0.317127	67.337653	0.000000	0.000000	0.000000	0.000000	0.000000	2
82.193979	3.206148	0.000000	-0.136229	0.498120	0.000000	0.516413	111.838416	0.000000	0.000000	0.000000	0.000000	0.000000	1
85.302971	3.206148	0.000000	-0.183847	0.867683	0.000000	0.886946	62.439080	0.000000	0.000000	0.000000	0.000000	0.000000	1
88.411963	3.206148	0.000000	-0.073674	0.708327	0.000000	0.712148	-54.944117	0.000000	0.000000	0.000000	0.000000	0.000000	2
91.520955	3.206148	0.000000	-0.007890	0.365726	0.000000	0.365811	-136.573719	0.000000	0.000000	0.000000	0.000000	0.000000	2
94.629947	3.206148	0.000000	-0.000537	0.020402	0.000000	0.020409	-79.472013	0.000000	0.000000	0.000000	0.000000	0.000000	1
97.738939	3.206148	0.000000	-0.004742	0.001063	0.000000	0.004860	0.918206	0.000000	0.000000	0.000000	0.000000	0.000000	1
100.847931	3.206148	0.000000	0.001440	-0.001297	0.000000	0.001939	3.532793	0.000000	0.000000	0.000000	0.000000	0.000000	1
103.956923	3.206148	0.000000	0.005640	-0.001402	0.000000	0.005812	3.713911	0.000000	0.000000	0.000000	0.000000	0.000000	1
107.065915	3.206148	0.000000	0.000795	-0.000557	0.000000	0.000971	3.081761	0.000000	0.000000	0.000000	0.000000	0.000000	1
110.174908	3.206148	0.000000	0.000368	-0.000921	0.000000	0.000992	2.559806	0.000000	0.000000	0.000000	0.000000	0.000000	1
113.283900	3.206148	0.000000	-0.002029	-0.000140	0.000000	0.002034	2.486834	0.000000	0.000000	0.000000	0.000000	0.000000	1
116.392892	3.206148	0.000000	-0.002272	0.000573	0.000000	0.002344	1.706340	0.000000	0.000000	0.000000	0.000000	0.000000	1
119.501884	3.206148	0.000000	-0.000574	0.000438	0.000000	0.000722	1.162441	0.000000	0.000000	0.000000	0.000000	0.000000	1
122.610876	3.206148	0.000000	0.000651	0.001037	0.000000	0.001225	1.050834	0.000000	0.000000	0.000000	0.000000	0.000000	1
125.719868	3.206148	0.000000	0.000379	0.001433	0.000000	0.001482	0.655517	0.000000	0.000000	0.000000	0.000000	0.000000	1
128.828860	3.206148	0.000000	-0.000697	0.000344	0.000000	0.000777	0.533024	0.000000	0.000000	0.000000	0.000000	0.000000	1
131.937852	3.206148	0.000000	0.000288	-0.000395	0.000000	0.000489	1.096244	0.000000	0.000000	0.000000	0.000000	0.000000	1
135.046844	3.206148	0.000000	-0.007075	0.008692	0.000000	0.011207	-0.834280	0.000000	0.000000	0.000000	0.000000	0.000000	1
138.155836	3.206148	0.000000	-0.010057	0.005635	0.000000	0.011528	-1.178734	0.000000	0.000000	0.000000	0.000000	0.000000	1
141.264829	3.206148	0.000000	-0.007102	0.007900	0.000000	0.010623	1.792939	0.000000	0.000000	0.000000	0.000000	0.000000	1
144.373821	3.206148	0.000000	-0.003200	0.009053	0.000000	0.009602	1.161672	0.000000	0.000000	0.000000	0.000000	0.000000	1
147.482813	3.206148	0.000000	-0.003182	0.005509	0.000000	0.006362	0.631650	0.000000	0.000000	0.000000	0.000000	0.000000	1
150.591805	3.206148	0.000000	-0.001014	0.013357	0.000000	0.013396	1.988650	0.000000	0.000000	0.000000	0.000000	0.000000	1
153.700797	3.206148	0.000000	-0.000448	0.016056	0.000000	0.016062	0.427206	0.000000	0.000000	0.000000	0.000000	0.000000	1
156.809789	3.206148	0.000000	-0.006395	0.004447	0.000000	0.007790	-1.098953	0.000000	0.000000	0.000000	0.000000	0.000000	1
159.918781	3.206148	0.000000	-0.006851	0.005129	0.000000	0.008558	-0.854795	0.000000	0.000000	0.000000	0.000000	0.000000	1
4.469176	6.315140	0.000000	-0.000504	0.010002	0.000000	0.010015	2.019288	0.000000	0.000000	0.000000	0.000000	0.000000	1
7.578168	6.315140	0.000000	-0.001834	0.015267	0.000000	0.015376	0.058659	0.000000	0.000000	0.000000	0.000000	0.000000	1
10.687160	6.315140	0.000000	-0.002820	0.005414	0.000000	0.006105	-0.696054	0.000000	0.000000	0.000000	0.000000	0.000000	1
13.796152	6.315140	0.000000	-0.002953	0.006167	0.000000	0.006838	0.599242	0.000000	0.000000	0.000000	0.000000	0.000000	1
16.905145	6.315140	0.000000	0.005845	0.010677	0.000000	0.012172	-0.127726	0.000000	0.000000	0.000000	0.000000	0.000000	1
20.014137	6.315140	0.000000	0.006772	0.010263	0.000000	0.012296	-0.947824	0.000000	0.000000	0.000000	0.000000	0.000000	1
23.123129	6.315140	0.000000	0.005191	0.007253	0.000000	0.008919	-0.222188	0.000000	0.000000	0.000000	0.000000	0.000000	1
26.232121	6.315140	0.000000	0.008160	0.014705	0.000000	0.016817	0.908899	0.000000	0.000000	0.000000	0.000000	0.000000	1
29.341113	6.315140	0.000000	0.012150	0.023080	0.000000	0.026083	-0.780538	0.000000	0.000000	0.000000	0.000000	0.000000	1
32.450105	6.315140	0.000000	0.010039	0.012892	0.000000	0.016340	-2.580210	0.000000	0.000000	0.000000	0.000000	0.000000	1
35.559097	6.315140	0.000000	0.005820	0.009497	0.000000	0.011138	-3.097034	0.000000	0.000000	0.000000	0.000000	0.000000	1
38.668089	6.315140	0.000000	0.001816	-0.002951	0.000000	0.003465	-3.033750	0.000000	0.000000	0.000000	0.000000	0.000000	1
41.777081	6.315140	0.000000	0.009717	-0.008220	0.000000	0.012728	-1.422867	0.000000	0.000000	0.000000	0.000000	0.000000	1
44.886073	6.315140	0.000000	0.012211	-0.007360	0.000000	0.014258	0.076290	0.000000	0.000000	0.000000	0.000000	0.000000	1
47.995066	6.315140	0.000000	0.004212	0.000850	0.000000	0.004297	-0.710878	0.000000	0.000000	0.000000	0.000000	0.000000	1
51.104058	6.315140	0.000000	0.007808	0.003539	0.000000	0.008573	3.301527	0.000000	0.000000	0.000000	0.000000	0.000000	1
54.213050	6.315140	0.000000	0.005771	0.016957	0.000000	0.017912	22.022534	0.000000	0.000000	0.000000	0.000000	0.000000	1
57.322042	6.315140	0.000000	-0.016746	0.027922	0.000000	0.032558	35.587047	0.000000	0.000000	0.000000	0.000000	0.000000	1
60.431034	6.315140	0.000000	-0.070039	0.025822	0.000000	0.074647	26.480975	0.000000	0.000000	0.000000	0.000000	0.000000	1
63.540026	6.315140	0.000000	-0.096631	0.031748	0.000000	0.101713	18.292905	0.000000	0.000000	0.000000	0.000000	0.000000	2
66.649018	6.315140	0.000000	-0.109843	0.028280	0.000000	0.113425	26.835307	0.000000	0.000000	0.000000	0.000000	0.000000	2
69.758010	6.315140	0.000000	-0.064591	0.053730	0.000000	0.084017	29.571684	0.000000	0.000000	0.000000	0.000000	0.000000	1
72.867002	6.315140	0.000000	-0.134021	0.042772	0.000000	0.140681	41.798128	0.000000	0.000000	0.000000	0.000000	0.000000	2
75.975994	6.315140	0.000000	-0.192392	0.272512	0.000000	0.333582	34.304623	0.000000	0.000000	0.000000	0.000000	0.000000	2
79.084987	6.315140	0.000000	-0.192784	0.236811	0.000000	0.305361	58.921152	0.000000	0.000000	0.000000	0.000000	0.000000	1
82.193979	6.315140	0.000000	-0.185194	0.591902	0.000000	0.620197	104.997385	0.000000	0.000000	0.000000	0.000000	0.000000	1
85.302971	6.315140	0.000000	-0.145283	0.951450	0.000000	0.962478	54.178728	0.000000	0.000000	0.000000	0.000000	0.000000	2
88.411963	6.315140	0.000000	-0.111577	1.148446	0.000000	1.153853	-41.381939	0.000000	0.000000	0.000000	0.000000	0.000000	2
91.520955	6.315140	0.000000	-0.036809	0.703960	0.000000	0.704922	-142.013320	0.000000	0.000000	0.000000	0.000000	0.000000	2
94.629947	6.315140	0.000000	-0.015243	0.027493	0.000000	0.031436	-99.470885	0.000000	0.000000	0.000000	0.000000	0.000000	1
97.738939	6.315140	0.000000	-0.020882	0.005838	0.000000	0.021683	-1.123623	0.000000	0.000000	0.000000	0.000000	0.000000	1
100.847931	6.315140	0.000000	-0.016197	-0.004012	0.000000	0.016686	2.253771	0.000000	0.000000	0.000000	0.000000	0.000000	1
103.956923	6.315140	0.000000	-0.004258	-0.009076	0.000000	0.010025	2.605211	0.000000	0.000000	0.000000	0.000000	0.000000	1
107.065915	6.315140	0.000000	-0.007058	-0.003853	0.000000	0.008041	1.411457	0.000000	0.000000	0.000000	0.000000	0.000000	1
110.174908	6.315140	0.000000	-0.006983	-0.004187	0.000000	0.008142	0.874162	0.000000	0.000000	0.000000	0.000000	0.000000	1
113.283900	6.315140	0.000000	-0.007566	-0.000528	0.000000	0.007584	0.850773	0.000000	0.000000	0.000000	0.000000	0.000000	1
116.392892	6.315140	0.000000	-0.005816	0.003277	0.000000	0.006676	0.502806	0.000000	0.000000	0.000000	0.000000	0.000000	1
119.501884	6.315140	0.000000	-0.004626	0.003438	0.000000	0.005763	0.376676	0.000000	0.000000	0.000000	0.000000	0.000000	1
122.610876	6.315140	0.000000	-0.003175	0.001794	0.000000	0.003647	0.268339	0.000000	0.000000	0.000000	0.000000	0.000000	1
125.719868	6.315140	0.000000	-0.001852	0.001575	0.000000	0.002431	0.296602	0.000000	0.000000	0.000000	0.000000	0.000000	1
128.828860	6.315140	0.000000	-0.001195	0.001853	0.000000	0.002205	0.520000	0.000000	0.000000	0.000000	0.000000	0.000000	1
131.937852	6.315140	0.000000	-0.002818	0.003698	0.000000	0.004649	0.878260	0.000000	0.000000	0.000000	0.000000	0.000000	1
135.046844	6.315140	0.000000	-0.000828	0.006674	0.000000	0.006725	-0.218410	0.000000	0.000000	0.000000	0.000000	0.000000	1
138.155836	6.315140	0.000000	-0.000132	0.006605	0.000000	0.006606	-0.234512	0.000000	0.000000	0.000000	0.000000	0.000000	1
141.264829	6.315140	0.000000	-0.012457	0.013548	0.000000	0.018405	1.241865	0.000000	0.000000	0.000000	0.000000	0.000000	1
144.373821	6.315140	0.000000	-0.013520	0.014377	0.000000	0.019736	0.043560	0.000000	0.000000	0.000000	0.000000	0.000000	1
147.482813	6.315140	0.000000	-0.003979	0.003594	0.000000	0.005361	0.115922	0.000000	0.000000	0.000000	0.000000	0.000000	1
150.591805	6.315140	0.000000	-0.003840	0.003190	0.000000	0.004992	1.725001	0.000000	0.000000	0.000000	0.000000	0.000000	1
153.700797	6.315140	0.000000	-0.006926	0.004853	0.000000	0.008457	0.627632	0.000000	0.000000	0.000000	0.000000	0.000000	1
156.809789	6.315140	0.000000	-0.004964	0.003064	0.000000	0.005833	-0.302237	0.000000	0.000000	0.000000	0.000000	0.000000	1
159.918781	6.315140	0.000000	-0.002726	0.002624	0.000000	0.003784	-0.013524	0.000000	0.000000	0.000000	0.000000	0.000000	1
4.469176	9.424132	0.000000	-0.006527	0.012891	0.000000	0.014449	1.511665	0.000000	0.000000	0.000000	0.000000	0.000000	1
7.578168	9.424132	0.000000	-0.001956	0.015276	0.000000	0.015401	-0.894077	0.000000	0.000000	0.000000	0.000000	0.000000	1
10.687160	9.424132	0.000000	-0.002032	0.004777	0.000000	0.005191	-2.060975	0.000000	0.000000	0.000000	0.000000	0.000000	1
13.796152	9.424132	0.000000	-0.002577	0.006401	0.000000	0.006900	0.704418	0.000000	0.000000	0.000000	0.000000	0.000000	1
16.905145	9.424132	0.000000	-0.001145	0.012073	0.000000	0.012127	1.732378	0.000000	0.000000	0.000000	0.000000	0.000000	1
20.014137	9.424132	0.000000	-0.001004	0.012059	0.000000	0.012100	0.440701	0.000000	0.000000	0.000000	0.000000	0.000000	1
23.123129	9.424132	0.000000	0.004034	0.007683	0.000000	0.008678	1.198044	0.000000	0.000000	0.000000	0.000000	0.000000	1
26.232121	9.424132	0.000000	0.007535	0.014170	0.000000	0.016049	3.142125	0.000000	0.000000	0.000000	0.000000	0.000000	1
29.341113	9.424132	0.000000	0.011118	0.023144	0.000000	0.025676	0.656426	0.000000	0.000000	0.000000	0.000000	0.000000	1
32.450105	9.424132	0.000000	0.008702	0.008792	0.000000	0.012371	-1.021256	0.000000	0.000000	0.000000	0.000000	0.000000	1
35.559097	9.424132	0.000000	0.012376	0.011726	0.000000	0.017049	-1.332218	0.000000	0.000000	0.000000	0.000000	0.000000	1
38.668089	9.424132	0.000000	0.009733	0.007434	0.000000	0.012247	-2.986424	0.000000	0.000000	0.000000	0.000000	0.000000	1
41.777081	9.424132	0.000000	0.002660	-0.001456	0.000000	0.003032	-0.797345	0.000000	0.000000	0.000000	0.000000	0.000000	1
44.886073	9.424132	0.000000	-0.002003	-0.014422	0.000000	0.014560	4.885387	0.000000	0.000000	0.000000	0.000000	0.000000	1
47.995066	9.424132	0.000000	0.003339	-0.018858	0.000000	0.019151	10.191905	0.000000	0.000000	0.000000	0.000000	0.000000	2
51.104058	9.424132	0.000000	0.019638	-0.027389	0.000000	0.033702	31.242981	0.000000	0.000000	0.000000	0.000000	0.000000	1
54.213050	9.424132	0.000000	-0.020534	0.053057	0.000000	0.056891	63.098827	0.000000	0.000000	0.000000	0.000000	0.000000	1
57.322042	9.424132	0.000000	-0.253708	0.196365	0.000000	0.320823	57.502595	0.000000	0.000000	0.000000	0.000000	0.000000	1
60.431034	9.424132	0.000000	-0.212533	0.197680	0.000000	0.290254	21.798882	0.000000	0.000000	0.000000	0.000000	0.000000	2
63.540026	9.424132	0.000000	-0.168307	0.046781	0.000000	0.174687	7.189561	0.000000	0.000000	0.000000	0.000000	0.000000	1
66.649018	9.424132	0.000000	-0.208887	0.022642	0.000000	0.210110	29.170262	0.000000	0.000000	0.000000	0.000000	0.000000	1
69.758010	9.424132	0.000000	-0.236938	0.070950	0.000000	0.247333	44.934652	0.000000	0.000000	0.000000	0.000000	0.000000	2
72.867002	9.424132	0.000000	-0.142070	0.116348	0.000000	0.183632	52.555964	0.000000	0.000000	0.000000	0.000000	0.000000	1
75.975994	9.424132	0.000000	-0.176185	0.309557	0.000000	0.356183	37.901434	0.000000	0.000000	0.000000	0.000000	0.000000	2
79.084987	9.424132	0.000000	-0.168253	0.325491	0.000000	0.366406	59.049482	0.000000	0.000000	0.000000	0.000000	0.000000	2
82.193979	9.424132	0.000000	-0.069673	0.799031	0.000000	0.802063	82.550374	0.000000	0.000000	0.000000	0.000000	0.000000	1
85.302971	9.424132	0.000000	-0.115774	1.116607	0.000000	1.122593	16.875994	0.000000	0.000000	0.000000	0.000000	0.000000	1
88.411963	9.424132	0.000000	-0.165785	0.933859	0.000000	0.948461	-50.289357	0.000000	0.000000	0.000000	0.000000	0.000000	2
91.520955	9.424132	0.000000	-0.104724	0.871309	0.000000	0.877580	-156.470036	0.000000	0.000000	0.000000	0.000000	0.000000	2
94.629947	9.424132	0.000000	-0.021511	0.024784	0.000000	0.032817	-122.299608	0.000000	0.000000	0.000000	0.000000	0.000000	1
97.738939	9.424132	0.000000	-0.023037	0.001102	0.000000	0.023063	-3.997429	0.000000	0.000000	0.000000	0.000000	0.000000	1
100.847931	9.424132	0.000000	-0.020261	0.002283	0.000000	0.020389	0.482685	0.000000	0.000000	0.000000	0.000000	0.000000	1
103.956923	9.424132	0.000000	-0.012586	0.009527	0.000000	0.015785	0.811824	0.000000	0.000000	0.000000	0.000000	0.000000	1
107.065915	9.424132	0.000000	-0.003450	0.003623	0.000000	0.005003	-0.568576	0.000000	0.000000	0.000000	0.000000	0.000000	1
110.174908	9.424132	0.000000	-0.003171	0.004121	0.000000	0.005199	-0.197394	0.000000	0.000000	0.000000	0.000000	0.000000	1
113.283900	9.424132	0.000000	-0.000966	0.008041	0.000000	0.008099	-0.406048	0.000000	0.000000	0.000000	0.000000	0.000000	1
116.392892	9.424132	0.000000	-0.005296	0.004424	0.000000	0.006901	-1.080080	0.000000	0.000000	0.000000	0.000000	0.000000	1
119.501884	9.424132	0.000000	-0.004927	0.002701	0.000000	0.005618	-0.785674	0.000000	0.000000	0.000000	0.000000	0.000000	1
122.610876	9.424132	0.000000	-0.001683	0.002231	0.000000	0.002794	-0.155599	0.000000	0.000000	0.000000	0.000000	0.000000	1
125.719868	9.424132	0.000000	-0.000902	0.001803	0.000000	0.002016	0.653961	0.000000	0.000000	0.000000	0.000000	0.000000	1
128.828860	9.424132	0.000000	-0.002041	0.003943	0.000000	0.004440	1.386032	0.000000	0.000000	0.000000	0.000000	0.000000	1
131.937852	9.424132	0.000000	-0.003111	0.004951	0.000000	0.005847	1.870976	0.000000	0.000000	0.000000	0.000000	0.000000	1
135.046844	9.424132	0.000000	0.000076	0.006806	0.000000	0.006806	1.552174	0.000000	0.000000	0.000000	0.000000	0.000000	1
138.155836	9.424132	0.000000	-0.001550	0.007084	0.000000	0.007251	1.059156	0.000000	0.000000	0.000000	0.000000	0.000000	1
141.264829	9.424132	0.000000	-0.008421	0.010863	0.000000	0.013744	0.430661	0.000000	0.000000	0.000000	0.000000	0.000000	1
144.373821	9.424132	0.000000	-0.013473	0.014604	0.000000	0.019870	-1.222238	0.000000	0.000000	0.000000	0.000000	0.000000	1
147.482813	9.424132	0.000000	-0.007973	0.007591	0.000000	0.011008	-0.687651	0.000000	0.000000	0.000000	0.000000	0.000000	1
150.591805	9.424132	0.000000	-0.008441	0.008276	0.000000	0.011822	0.663272	0.000000	0.000000	0.000000	0.000000	0.000000	1
153.700797	9.424132	0.000000	-0.009603	0.008630	0.000000	0.012911	0.009922	0.000000	0.000000	0.000000	0.000000	0.000000	1
156.809789	9.424132	0.000000	-0.007491	0.006215	0.000000	0.009734	-0.364138	0.000000	0.000000	0.000000	0.000000	0.000000	1
159.918781	9.424132	0.000000	-0.006676	0.005326	0.000000	0.008540	-0.218002	0.000000	0.000000	0.000000	0.000000	0.000000	1
4.469176	12.533124	0.000000	-0.010224	0.007676	0.000000	0.012785	-0.440270	0.000000	0.000000	0.000000	0.000000	0.000000	1
7.578168	12.533124	0.000000	-0.000511	0.008043	0.000000	0.008059	-1.337717	0.000000	0.000000	0.000000	0.000000	0.000000	1
10.687160	12.533124	0.000000	0.004118	0.006118	0.000000	0.007375	-1.779188	0.000000	0.000000	0.000000	0.000000	0.000000	1
13.796152	12.533124	0.000000	0.004137	0.005922	0.000000	0.007224	-0.513947	0.000000	0.000000	0.000000	0.000000	0.000000	1
16.905145	12.533124	0.000000	-0.006738	0.012319	0.000000	0.014041	-0.507036	0.000000	0.000000	0.000000	0.000000	0.000000	1
20.014137	12.533124	0.000000	-0.001198	0.007552	0.000000	0.007646	-1.215411	0.000000	0.000000	0.000000	0.000000	0.000000	1
23.123129	12.533124	0.000000	0.002660	0.004429	0.000000	0.005166	0.406386	0.000000	0.000000	0.000000	0.000000	0.000000	1
26.232121	12.533124	0.000000	0.001190	0.008682	0.000000	0.008763	1.581900	0.000000	0.000000	0.000000	0.000000	0.000000	1
29.341113	12.533124	0.000000	0.001684	0.008893	0.000000	0.009051	0.003820	0.000000	0.000000	0.000000	0.000000	0.000000	1
32.450105	12.533124	0.000000	0.007714	0.007348	0.000000	0.010653	-0.019365	0.000000	0.000000	0.000000	0.000000	0.000000	1
35.559097	12.533124	0.000000	0.011465	0.010441	0.000000	0.015507	0.914188	0.000000	0.000000	0.000000	0.000000	0.000000	1
38.668089	12.533124	0.000000	0.012875	0.012797	0.000000	0.018153	0.020800	0.000000	0.000000	0.000000	0.000000	0.000000	1
41.777081	12.533124	0.000000	0.006797	0.005083	0.000000	0.008487	2.165077	0.000000	0.000000	0.000000	0.000000	0.000000	1
44.886073	12.533124	0.000000	-0.048855	-0.014763	0.000000	0.051036	7.331469	0.000000	0.000000	0.000000	0.000000	0.000000	1
47.995066	12.533124	0.000000	-0.039077	-0.016014	0.000000	0.042231	24.076231	0.000000	0.000000	0.000000	0.000000	0.000000	2
51.104058	12.533124	0.000000	-0.061013	0.037300	0.000000	0.071511	61.088274	0.000000	0.000000	0.000000	0.000000	0.000000	2
54.213050	12.533124	0.000000	-0.261269	0.153153	0.000000	0.302849	71.401806	0.000000	0.000000	0.000000	0.000000	0.000000	2
57.322042	12.533124	0.000000	-0.297304	0.251343	0.000000	0.389311	44.318629	0.000000	0.000000	0.000000	0.000000	0.000000	1
60.431034	12.533124	0.000000	-0.288963	0.238166	0.000000	0.374463	21.466596	0.000000	0.000000	0.000000	0.000000	0.000000	1
63.540026	12.533124	0.000000	-0.215585	0.251508	0.000000	0.331260	1.446339	0.000000	0.000000	0.000000	0.000000	0.000000	1
66.649018	12.533124	0.000000	-0.289375	0.128238	0.000000	0.316517	9.138716	0.000000	0.000000	0.000000	0.000000	0.000000	1
69.758010	12.533124	0.000000	-0.327938	0.165345	0.000000	0.367263	33.128372	0.000000	0.000000	0.000000	0.000000	0.000000	1
72.867002	12.533124	0.000000	-0.276778	0.194966	0.000000	0.338553	53.556329	0.000000	0.000000	0.000000	0.000000	0.000000	2
75.975994	12.533124	0.000000	-0.143380	0.276671	0.000000	0.311617	72.373570	0.000000	0.000000	0.000000	0.000000	0.000000	2
79.084987	12.533124	0.000000	-0.084406	0.588968	0.000000	0.594986	73.210647	0.000000	0.000000	0.000000	0.000000	0.000000	2
82.193979	12.533124	0.000000	-0.018165	0.879808	0.000000	0.879996	51.871717	0.000000	0.000000	0.000000	0.000000	0.000000	2
85.302971	12.533124	0.000000	-0.024517	0.908494	0.000000	0.908825	-32.210590	0.000000	0.000000	0.000000	0.000000	0.000000	2
88.411963	12.533124	0.000000	-0.081672	0.911815	0.000000	0.915465	-106.074767	0.000000	0.000000	0.000000	0.000000	0.000000	2
91.520955	12.533124	0.000000	-0.036629	0.576540	0.000000	0.577702	-161.779475	0.000000	0.000000	0.000000	0.000000	0.000000	2
94.629947	12.533124	0.000000	-0.006706	-0.002001	0.000000	0.006998	-107.194100	0.000000	0.000000	0.000000	0.000000	0.000000	1
97.738939	12.533124	0.000000	-0.010858	0.000521	0.000000	0.010870	-4.645275	0.000000	0.000000	0.000000	0.000000	0.000000	1
100.847931	12.533124	0.000000	-0.015671	0.004194	0.000000	0.016222	-1.650659	0.000000	0.000000	0.000000	0.000000	0.000000	1
103.956923	12.533124	0.000000	-0.013779	0.012144	0.000000	0.018367	-1.965211	0.000000	0.000000	0.000000	0.000000	0.000000	1
107.065915	12.533124	0.000000	-0.003019	0.007069	0.000000	0.007687	-2.413528	0.000000	0.000000	0.000000	0.000000	0.000000	1
110.174908	12.533124	0.000000	-0.002758	0.006708	0.000000	0.007253	0.089678	0.000000	0.000000	0.000000	0.000000	0.000000	1
113.283900	12.533124	0.000000	-0.001655	0.008400	0.000000	0.008562	1.162186	0.000000	0.000000	0.000000	0.000000	0.000000	1
116.392892	12.533124	0.000000	-0.001793	0.008609	0.000000	0.008793	0.369995	0.000000	0.000000	0.000000	0.000000	0.000000	1
119.501884	12.533124	0.000000	-0.002907	0.003927	0.000000	0.004886	-0.576753	0.000000	0.000000	0.000000	0.000000	0.000000	1
122.610876	12.533124	0.000000	-0.001542	0.004030	0.000000	0.004315	0.106295	0.000000	0.000000	0.000000	0.000000	0.000000	1
125.719868	12.533124	0.000000	-0.002975	0.007575	0.000000	0.008138	1.677535	0.000000	0.000000	0.000000	0.000000	0.000000	1
128.828860	12.533124	0.000000	-0.006197	0.011195	0.000000	0.012796	2.320806	0.000000	0.000000	0.000000	0.000000	0.000000	1
131.937852	12.533124	0.000000	-0.010131	0.015190	0.000000	0.018259	2.006635	0.000000	0.000000	0.000000	0.000000	0.000000	1
135.046844	12.533124	0.000000	-0.012489	0.015894	0.000000	0.020214	2.045768	0.000000	0.000000	0.000000	0.000000	0.000000	1
138.155836	12.533124	0.000000	-0.005536	0.010583	0.000000	0.011943	1.980573	0.000000	0.000000	0.000000	0.000000	0.000000	1
141.264829	12.533124	0.000000	-0.006214	0.011024	0.000000	0.012655	0.368046	0.000000	0.000000	0.000000	0.000000	0.000000	1
144.373821	12.533124	0.000000	-0.008513	0.010571	0.000000	0.013572	-1.153123	0.000000	0.000000	0.000000	0.000000	0.000000	1
147.482813	12.533124	0.000000	-0.008759	0.008600	0.000000	0.012275	-0.945373	0.000000	0.000000	0.000000	0.000000	0.000000	1
150.591805	12.533124	0.000000	-0.008936	0.007658	0.000000	0.011768	-0.518195	0.000000	0.000000	0.000000	0.000000	0.000000	1
153.700797	12.533124	0.000000	-0.008447	0.005263	0.000000	0.009953	-0.743023	0.000000	0.000000	0.000000	0.000000	0.000000	1
156.809789	12.533124	0.000000	-0.004407	0.004570	0.000000	0.006348	-0.977967	0.000000	0.000000	0.000000	0.000000	0.000000	1
159.918781	12.533124	0.000000	-0.003416	0.003945	0.000000	0.005219	-1.005224	0.000000	0.000000	0.000000	0.000000	0.000000	1
4.469176	15.642117	0.000000	-0.003585	0.007718	0.000000	0.008510	-1.069418	0.000000	0.000000	0.000000	0.000000	0.000000	1
7.578168	15.642117	0.000000	0.003316	0.007337	0.000000	0.008051	-0.643530	0.000000	0.000000	0.000000	0.000000	0.000000	1
10.687160	15.642117	0.000000	0.006002	0.007194	0.000000	0.009369	0.041881	0.000000	0.000000	0.000000	0.000000	0.000000	1
13.796152	15.642117	0.000000	0.006462	0.006581	0.000000	0.009223	0.232922	0.000000	0.000000	0.000000	0.000000	0.000000	1
16.905145	15.642117	0.000000	0.001492	0.003462	0.000000	0.003770	-0.761128	0.000000	0.000000	0.000000	0.000000	0.000000	1
20.014137	15.642117	0.000000	0.003122	0.003490	0.000000	0.004683	-2.095939	0.000000	0.000000	0.000000	0.000000	0.000000	1
23.123129	15.642117	0.000000	0.003657	0.003914	0.000000	0.005357	-2.345526	0.000000	0.000000	0.000000	0.000000	0.000000	1
26.232121	15.642117	0.000000	0.003682	0.008745	0.000000	0.009488	-2.258895	0.000000	0.000000	0.000000	0.000000	0.000000	1
29.341113	15.642117	0.000000	0.008282	0.007950	0.000000	0.011481	-1.602750	0.000000	0.000000	0.000000	0.000000	0.000000	1
32.450105	15.642117	0.000000	0.008649	0.007306	0.000000	0.011321	-0.309921	0.000000	0.000000	0.000000	0.000000	0.000000	1
35.559097	15.642117	0.000000	0.005324	0.005795	0.000000	0.007869	0.134523	0.000000	0.000000	0.000000	0.000000	0.000000	1
38.668089	15.642117	0.000000	0.008905	0.005516	0.000000	0.010475	-0.754635	0.000000	0.000000	0.000000	0.000000	0.000000	1
41.777081	15.642117	0.000000	-0.009634	0.009206	0.000000	0.013326	4.258635	0.000000	0.000000	0.000000	0.000000	0.000000	2
44.886073	15.642117	0.000000	-0.044604	0.068325	0.000000	0.081596	15.844260	0.000000	0.000000	0.000000	0.000000	0.000000	1
47.995066	15.642117	0.000000	-0.075457	0.074859	0.000000	0.106290	34.526980	0.000000	0.000000	0.000000	0.000000	0.000000	1
51.104058	15.642117	0.000000	-0.259473	0.096684	0.000000	0.276901	52.887449	0.000000	0.000000	0.000000	0.000000	0.000000	2
54.213050	15.642117	0.000000	-0.332853	0.234659	0.000000	0.407254	33.542958	0.000000	0.000000	0.000000	0.000000	0.000000	1
57.322042	15.642117	0.000000	-0.404299	0.166409	0.000000	0.437207	29.211930	0.000000	0.000000	0.000000	0.000000	0.000000	1
60.431034	15.642117	0.000000	-0.321232	0.300102	0.000000	0.439604	43.626761	0.000000	0.000000	0.000000	0.000000	0.000000	1
63.540026	15.642117	0.000000	-0.246847	0.403052	0.000000	0.472635	14.999495	0.000000	0.000000	0.000000	0.000000	0.000000	1
66.649018	15.642117	0.000000	-0.305942	0.368135	0.000000	0.478668	3.463312	0.000000	0.000000	0.000000	0.000000	0.000000	1
69.758010	15.642117	0.000000	-0.378983	0.363810	0.000000	0.525344	-1.223347	0.000000	0.000000	0.000000	0.000000	0.000000	1
72.867002	15.642117	0.000000	-0.513538	0.212327	0.000000	0.555702	4.102069	0.000000	0.000000	0.000000	0.000000	0.000000	2
75.975994	15.642117	0.000000	-0.270281	0.255527	0.000000	0.371949	61.721217	0.000000	0.000000	0.000000	0.000000	0.000000	2
79.084987	15.642117	0.000000	-0.034033	0.589816	0.000000	0.590797	69.803289	0.000000	0.000000	0.000000	0.000000	0.000000	2
82.193979	15.642117	0.000000	0.025558	0.650250	0.000000	0.650752	42.171349	0.000000	0.000000	0.000000	0.000000	0.000000	2
85.302971	15.642117	0.000000	0.079482	0.969742	0.000000	0.972994	-28.141445	0.000000	0.000000	0.000000	0.000000	0.000000	2
88.411963	15.642117	0.000000	0.198694	0.500491	0.000000	0.538489	-99.364705	0.000000	0.000000	0.000000	0.000000	0.000000	2
91.520955	15.642117	0.000000	0.090206	0.359801	0.000000	0.370936	-117.071348	0.000000	0.000000	0.000000	0.000000	0.000000	2
94.629947	15.642117	0.000000	0.010414	-0.000318	0.000000	0.010419	-72.169321	0.000000	0.000000	0.000000	0.000000	0.000000	1
97.738939	15.642117	0.000000	0.003765	0.001496	0.000000	0.004051	-6.381849	0.000000	0.000000	0.000000	0.000000	0.000000	1
100.847931	15.642117	0.000000	0.002209	0.002253	0.000000	0.003155	-1.306645	0.000000	0.000000	0.000000	0.000000	0.000000	1
103.956923	15.642117	0.000000	0.007229	0.020324	0.000000	0.021571	-0.508881	0.000000	0.000000	0.000000	0.000000	0.000000	1
107.065915	15.642117	0.000000	0.004839	0.016671	0.000000	0.017359	-0.950124	0.000000	0.000000	0.000000	0.000000	0.000000	1
110.174908	15.642117	0.000000	-0.003877	0.012258	0.000000	0.012857	-0.953303	0.000000	0.000000	0.000000	0.000000	0.000000	1
113.283900	15.642117	0.000000	-0.008221	0.011442	0.000000	0.014090	-1.013203	0.000000	0.000000	0.000000	0.000000	0.000000	1
116.392892	15.642117	0.000000	-0.009714	0.017425	0.000000	0.019949	-1.965169	0.000000	0.000000	0.000000	0.000000	0.000000	1
119.501884	15.642117	0.000000	-0.004269	0.019499	0.000000	0.019960	-4.528339	0.000000	0.000000	0.000000	0.000000	0.000000	1