TITLE = "PIV Result  2855 "
VARIABLES = "X (mm)""Y (mm)""Z (mm)""U (m/s)""V (m/s)""W (m/s)""Speed (m/s)""Vorticity""U-std""V-std""W-std""Speed-std""Vorticity-std""Flag"
ZONE T="ZONE 2855 "
I= 51 , J= 16 , K= 1 , F=POINT
DT=(DOUBLE DOUBLE DOUBLE DOUBLE DOUBLE DOUBLE DOUBLE DOUBLE DOUBLE DOUBLE DOUBLE DOUBLE DOUBLE DOUBLE)
4.469176	3.206148	0.000000	0.000960	0.011598	0.000000	0.011638	-0.127537	0.000000	0.000000	0.000000	0.000000	0.000000	2
7.578168	3.206148	0.000000	0.003300	0.014881	0.000000	0.015243	0.263576	0.000000	0.000000	0.000000	0.000000	0.000000	1
10.687160	3.206148	0.000000	0.012202	0.015352	0.000000	0.019610	0.290001	0.000000	0.000000	0.000000	0.000000	0.000000	1
13.796152	3.206148	0.000000	0.009000	0.012731	0.000000	0.015591	-1.211550	0.000000	0.000000	0.000000	0.000000	0.000000	1
16.905145	3.206148	0.000000	0.002578	0.005342	0.000000	0.005932	-1.347902	0.000000	0.000000	0.000000	0.000000	0.000000	1
20.014137	3.206148	0.000000	0.002049	0.005065	0.000000	0.005464	-0.169872	0.000000	0.000000	0.000000	0.000000	0.000000	1
23.123129	3.206148	0.000000	0.002479	0.003986	0.000000	0.004694	-0.475423	0.000000	0.000000	0.000000	0.000000	0.000000	1
26.232121	3.206148	0.000000	-0.002810	0.003168	0.000000	0.004235	-2.643793	0.000000	0.000000	0.000000	0.000000	0.000000	1
29.341113	3.206148	0.000000	-0.002714	0.003768	0.000000	0.004644	-3.717795	0.000000	0.000000	0.000000	0.000000	0.000000	1
32.450105	3.206148	0.000000	0.003290	0.006099	0.000000	0.006930	-1.795309	0.000000	0.000000	0.000000	0.000000	0.000000	1
35.559097	3.206148	0.000000	0.001082	-0.000536	0.000000	0.001208	-1.074579	0.000000	0.000000	0.000000	0.000000	0.000000	1
38.668089	3.206148	0.000000	0.000551	-0.001151	0.000000	0.001277	-1.968424	0.000000	0.000000	0.000000	0.000000	0.000000	1
41.777081	3.206148	0.000000	-0.000103	-0.000667	0.000000	0.000675	-2.674469	0.000000	0.000000	0.000000	0.000000	0.000000	1
44.886073	3.206148	0.000000	0.002619	-0.000914	0.000000	0.002774	-4.292138	0.000000	0.000000	0.000000	0.000000	0.000000	1
47.995066	3.206148	0.000000	0.000089	-0.001382	0.000000	0.001385	-10.262436	0.000000	0.000000	0.000000	0.000000	0.000000	1
51.104058	3.206148	0.000000	0.003949	0.000405	0.000000	0.003970	-13.915798	0.000000	0.000000	0.000000	0.000000	0.000000	1
54.213050	3.206148	0.000000	0.004700	-0.000892	0.000000	0.004784	12.439989	0.000000	0.000000	0.000000	0.000000	0.000000	1
57.322042	3.206148	0.000000	0.005105	-0.001883	0.000000	0.005441	59.320110	0.000000	0.000000	0.000000	0.000000	0.000000	1
60.431034	3.206148	0.000000	-0.143606	0.129704	0.000000	0.193509	101.347697	0.000000	0.000000	0.000000	0.000000	0.000000	2
63.540026	3.206148	0.000000	-0.193367	0.204176	0.000000	0.281209	169.612636	0.000000	0.000000	0.000000	0.000000	0.000000	2
66.649018	3.206148	0.000000	-0.384327	0.439988	0.000000	0.584207	179.902473	0.000000	0.000000	0.000000	0.000000	0.000000	2
69.758010	3.206148	0.000000	-0.706666	0.739503	0.000000	1.022860	77.782243	0.000000	0.000000	0.000000	0.000000	0.000000	2
72.867002	3.206148	0.000000	-0.627119	0.694527	0.000000	0.935760	-119.291840	0.000000	0.000000	0.000000	0.000000	0.000000	1
75.975994	3.206148	0.000000	-0.423061	-0.037811	0.000000	0.424748	-137.747248	0.000000	0.000000	0.000000	0.000000	0.000000	1
79.084987	3.206148	0.000000	-0.210359	-0.056343	0.000000	0.217774	-9.627964	0.000000	0.000000	0.000000	0.000000	0.000000	1
82.193979	3.206148	0.000000	-0.045779	-0.020258	0.000000	0.050061	-6.335625	0.000000	0.000000	0.000000	0.000000	0.000000	2
85.302971	3.206148	0.000000	-0.030470	-0.045027	0.000000	0.054368	-11.653336	0.000000	0.000000	0.000000	0.000000	0.000000	2
88.411963	3.206148	0.000000	-0.039495	-0.036893	0.000000	0.054046	-4.161261	0.000000	0.000000	0.000000	0.000000	0.000000	1
91.520955	3.206148	0.000000	-0.010164	-0.012687	0.000000	0.016256	-4.206108	0.000000	0.000000	0.000000	0.000000	0.000000	1
94.629947	3.206148	0.000000	-0.013904	-0.037036	0.000000	0.039561	-3.609770	0.000000	0.000000	0.000000	0.000000	0.000000	1
97.738939	3.206148	0.000000	-0.004481	-0.013295	0.000000	0.014030	-0.120894	0.000000	0.000000	0.000000	0.000000	0.000000	1
100.847931	3.206148	0.000000	-0.001169	-0.003880	0.000000	0.004052	3.071235	0.000000	0.000000	0.000000	0.000000	0.000000	1
103.956923	3.206148	0.000000	-0.004127	0.000421	0.000000	0.004148	5.473741	0.000000	0.000000	0.000000	0.000000	0.000000	1
107.065915	3.206148	0.000000	0.000275	0.001446	0.000000	0.001472	1.791144	0.000000	0.000000	0.000000	0.000000	0.000000	1
110.174908	3.206148	0.000000	0.002133	0.000524	0.000000	0.002196	-2.580557	0.000000	0.000000	0.000000	0.000000	0.000000	1
113.283900	3.206148	0.000000	0.000823	-0.000395	0.000000	0.000913	-1.262933	0.000000	0.000000	0.000000	0.000000	0.000000	1
116.392892	3.206148	0.000000	0.000941	0.000110	0.000000	0.000947	1.624697	0.000000	0.000000	0.000000	0.000000	0.000000	1
119.501884	3.206148	0.000000	-0.000248	-0.000069	0.000000	0.000257	2.149291	0.000000	0.000000	0.000000	0.000000	0.000000	1
122.610876	3.206148	0.000000	0.001173	0.001072	0.000000	0.001589	2.465302	0.000000	0.000000	0.000000	0.000000	0.000000	1
125.719868	3.206148	0.000000	0.000696	0.000458	0.000000	0.000833	3.217538	0.000000	0.000000	0.000000	0.000000	0.000000	1
128.828860	3.206148	0.000000	0.000753	-0.000858	0.000000	0.001141	3.684854	0.000000	0.000000	0.000000	0.000000	0.000000	1
131.937852	3.206148	0.000000	0.001253	-0.000518	0.000000	0.001355	3.637385	0.000000	0.000000	0.000000	0.000000	0.000000	1
135.046844	3.206148	0.000000	-0.002279	0.005309	0.000000	0.005777	1.777142	0.000000	0.000000	0.000000	0.000000	0.000000	1
138.155836	3.206148	0.000000	-0.003618	0.007432	0.000000	0.008266	-0.300841	0.000000	0.000000	0.000000	0.000000	0.000000	1
141.264829	3.206148	0.000000	-0.003537	0.006574	0.000000	0.007465	-0.744178	0.000000	0.000000	0.000000	0.000000	0.000000	1
144.373821	3.206148	0.000000	-0.002330	0.002668	0.000000	0.003542	-0.052748	0.000000	0.000000	0.000000	0.000000	0.000000	1
147.482813	3.206148	0.000000	-0.008671	0.008799	0.000000	0.012353	0.018145	0.000000	0.000000	0.000000	0.000000	0.000000	1
150.591805	3.206148	0.000000	-0.009242	0.009875	0.000000	0.013525	-0.339265	0.000000	0.000000	0.000000	0.000000	0.000000	1
153.700797	3.206148	0.000000	-0.004011	0.005516	0.000000	0.006820	-0.339115	0.000000	0.000000	0.000000	0.000000	0.000000	1
156.809789	3.206148	0.000000	-0.004118	0.002677	0.000000	0.004911	0.072924	0.000000	0.000000	0.000000	0.000000	0.000000	1
159.918781	3.206148	0.000000	-0.005743	0.005330	0.000000	0.007836	0.535666	0.000000	0.000000	0.000000	0.000000	0.000000	1
4.469176	6.315140	0.000000	0.001319	0.013255	0.000000	0.013321	-0.596045	0.000000	0.000000	0.000000	0.000000	0.000000	1
7.578168	6.315140	0.000000	0.004660	0.010898	0.000000	0.011853	0.101843	0.000000	0.000000	0.000000	0.000000	0.000000	1
10.687160	6.315140	0.000000	0.009913	0.013570	0.000000	0.016805	0.658904	0.000000	0.000000	0.000000	0.000000	0.000000	1
13.796152	6.315140	0.000000	0.008179	0.012618	0.000000	0.015037	-0.632105	0.000000	0.000000	0.000000	0.000000	0.000000	1
16.905145	6.315140	0.000000	0.003339	0.005345	0.000000	0.006302	-1.314081	0.000000	0.000000	0.000000	0.000000	0.000000	1
20.014137	6.315140	0.000000	0.002479	0.004653	0.000000	0.005272	-0.614276	0.000000	0.000000	0.000000	0.000000	0.000000	1
23.123129	6.315140	0.000000	0.001290	0.005020	0.000000	0.005183	-0.390805	0.000000	0.000000	0.000000	0.000000	0.000000	1
26.232121	6.315140	0.000000	0.010855	0.012354	0.000000	0.016445	-1.118430	0.000000	0.000000	0.000000	0.000000	0.000000	1
29.341113	6.315140	0.000000	0.011551	0.012765	0.000000	0.017215	-1.853618	0.000000	0.000000	0.000000	0.000000	0.000000	1
32.450105	6.315140	0.000000	0.002694	0.004786	0.000000	0.005492	-1.831711	0.000000	0.000000	0.000000	0.000000	0.000000	1
35.559097	6.315140	0.000000	0.001875	0.008608	0.000000	0.008810	-2.392405	0.000000	0.000000	0.000000	0.000000	0.000000	1
38.668089	6.315140	0.000000	0.003791	0.002903	0.000000	0.004775	-2.590786	0.000000	0.000000	0.000000	0.000000	0.000000	1
41.777081	6.315140	0.000000	0.004789	-0.003574	0.000000	0.005976	-2.011331	0.000000	0.000000	0.000000	0.000000	0.000000	1
44.886073	6.315140	0.000000	0.015165	-0.005022	0.000000	0.015975	0.022903	0.000000	0.000000	0.000000	0.000000	0.000000	1
47.995066	6.315140	0.000000	0.044902	0.018562	0.000000	0.048587	-5.292683	0.000000	0.000000	0.000000	0.000000	0.000000	1
51.104058	6.315140	0.000000	0.040176	0.004434	0.000000	0.040419	-10.997820	0.000000	0.000000	0.000000	0.000000	0.000000	1
54.213050	6.315140	0.000000	0.030843	-0.011576	0.000000	0.032944	30.039099	0.000000	0.000000	0.000000	0.000000	0.000000	1
57.322042	6.315140	0.000000	-0.116648	0.128185	0.000000	0.173315	72.643901	0.000000	0.000000	0.000000	0.000000	0.000000	2
60.431034	6.315140	0.000000	-0.243127	0.278649	0.000000	0.369806	109.233071	0.000000	0.000000	0.000000	0.000000	0.000000	1
63.540026	6.315140	0.000000	-0.575288	0.479770	0.000000	0.749090	145.960201	0.000000	0.000000	0.000000	0.000000	0.000000	2
66.649018	6.315140	0.000000	-0.806101	0.792530	0.000000	1.130444	86.107466	0.000000	0.000000	0.000000	0.000000	0.000000	1
69.758010	6.315140	0.000000	-0.878428	0.784480	0.000000	1.177728	-14.143215	0.000000	0.000000	0.000000	0.000000	0.000000	1
72.867002	6.315140	0.000000	-0.524103	0.843011	0.000000	0.992649	-143.877707	0.000000	0.000000	0.000000	0.000000	0.000000	2
75.975994	6.315140	0.000000	-0.411374	0.124240	0.000000	0.429725	-143.677306	0.000000	0.000000	0.000000	0.000000	0.000000	2
79.084987	6.315140	0.000000	-0.207134	0.010475	0.000000	0.207398	-28.777594	0.000000	0.000000	0.000000	0.000000	0.000000	2
82.193979	6.315140	0.000000	-0.021445	0.029427	0.000000	0.036412	-10.612647	0.000000	0.000000	0.000000	0.000000	0.000000	1
85.302971	6.315140	0.000000	-0.015158	-0.012426	0.000000	0.019600	-9.952667	0.000000	0.000000	0.000000	0.000000	0.000000	1
88.411963	6.315140	0.000000	-0.012796	-0.017202	0.000000	0.021439	-3.347740	0.000000	0.000000	0.000000	0.000000	0.000000	1
91.520955	6.315140	0.000000	-0.006932	-0.024573	0.000000	0.025532	-1.330008	0.000000	0.000000	0.000000	0.000000	0.000000	1
94.629947	6.315140	0.000000	-0.002216	-0.024513	0.000000	0.024613	-0.892782	0.000000	0.000000	0.000000	0.000000	0.000000	1
97.738939	6.315140	0.000000	-0.001586	-0.039352	0.000000	0.039384	-1.097285	0.000000	0.000000	0.000000	0.000000	0.000000	1
100.847931	6.315140	0.000000	0.004938	-0.035588	0.000000	0.035929	2.363485	0.000000	0.000000	0.000000	0.000000	0.000000	1
103.956923	6.315140	0.000000	-0.002703	0.001659	0.000000	0.003171	5.395942	0.000000	0.000000	0.000000	0.000000	0.000000	1
107.065915	6.315140	0.000000	-0.005007	0.030830	0.000000	0.031234	-0.293793	0.000000	0.000000	0.000000	0.000000	0.000000	1
110.174908	6.315140	0.000000	0.004372	0.016929	0.000000	0.017485	-3.918093	0.000000	0.000000	0.000000	0.000000	0.000000	1
113.283900	6.315140	0.000000	0.005639	0.004591	0.000000	0.007271	-1.614174	0.000000	0.000000	0.000000	0.000000	0.000000	1
116.392892	6.315140	0.000000	-0.008292	0.004275	0.000000	0.009329	0.290793	0.000000	0.000000	0.000000	0.000000	0.000000	1
119.501884	6.315140	0.000000	-0.008028	0.003040	0.000000	0.008584	0.876382	0.000000	0.000000	0.000000	0.000000	0.000000	1
122.610876	6.315140	0.000000	-0.005625	-0.001549	0.000000	0.005834	1.570527	0.000000	0.000000	0.000000	0.000000	0.000000	1
125.719868	6.315140	0.000000	-0.007793	0.003307	0.000000	0.008465	1.620708	0.000000	0.000000	0.000000	0.000000	0.000000	1
128.828860	6.315140	0.000000	-0.012063	0.003804	0.000000	0.012648	1.010555	0.000000	0.000000	0.000000	0.000000	0.000000	1
131.937852	6.315140	0.000000	-0.010518	0.004218	0.000000	0.011332	1.232200	0.000000	0.000000	0.000000	0.000000	0.000000	1
135.046844	6.315140	0.000000	-0.001945	0.006849	0.000000	0.007120	0.677794	0.000000	0.000000	0.000000	0.000000	0.000000	1
138.155836	6.315140	0.000000	-0.002920	0.007963	0.000000	0.008481	-0.696514	0.000000	0.000000	0.000000	0.000000	0.000000	1
141.264829	6.315140	0.000000	-0.004506	0.002602	0.000000	0.005204	-0.697174	0.000000	0.000000	0.000000	0.000000	0.000000	1
144.373821	6.315140	0.000000	-0.003090	0.001471	0.000000	0.003422	0.522643	0.000000	0.000000	0.000000	0.000000	0.000000	1
147.482813	6.315140	0.000000	-0.001099	0.004803	0.000000	0.004927	0.695579	0.000000	0.000000	0.000000	0.000000	0.000000	1
150.591805	6.315140	0.000000	-0.009281	0.008833	0.000000	0.012813	0.106673	0.000000	0.000000	0.000000	0.000000	0.000000	1
153.700797	6.315140	0.000000	-0.007714	0.007657	0.000000	0.010869	-0.273603	0.000000	0.000000	0.000000	0.000000	0.000000	1
156.809789	6.315140	0.000000	-0.004271	0.004215	0.000000	0.006001	0.194624	0.000000	0.000000	0.000000	0.000000	0.000000	1
159.918781	6.315140	0.000000	-0.003970	0.006512	0.000000	0.007627	0.759215	0.000000	0.000000	0.000000	0.000000	0.000000	1
4.469176	9.424132	0.000000	0.003806	0.008834	0.000000	0.009619	-0.693525	0.000000	0.000000	0.000000	0.000000	0.000000	1
7.578168	9.424132	0.000000	0.004903	0.007302	0.000000	0.008796	0.124288	0.000000	0.000000	0.000000	0.000000	0.000000	1
10.687160	9.424132	0.000000	0.005951	0.006785	0.000000	0.009024	1.011394	0.000000	0.000000	0.000000	0.000000	0.000000	1
13.796152	9.424132	0.000000	0.005814	0.008316	0.000000	0.010147	0.370241	0.000000	0.000000	0.000000	0.000000	0.000000	1
16.905145	9.424132	0.000000	0.006275	0.008597	0.000000	0.010644	-0.398260	0.000000	0.000000	0.000000	0.000000	0.000000	1
20.014137	9.424132	0.000000	0.006052	0.007439	0.000000	0.009590	-0.201777	0.000000	0.000000	0.000000	0.000000	0.000000	1
23.123129	9.424132	0.000000	0.004224	0.008773	0.000000	0.009736	0.368654	0.000000	0.000000	0.000000	0.000000	0.000000	1
26.232121	9.424132	0.000000	0.014013	0.008528	0.000000	0.016404	2.228145	0.000000	0.000000	0.000000	0.000000	0.000000	1
29.341113	9.424132	0.000000	0.011267	0.015053	0.000000	0.018803	2.264758	0.000000	0.000000	0.000000	0.000000	0.000000	1
32.450105	9.424132	0.000000	0.007461	0.023585	0.000000	0.024737	-1.640286	0.000000	0.000000	0.000000	0.000000	0.000000	1
35.559097	9.424132	0.000000	0.006228	0.009581	0.000000	0.011428	-3.357891	0.000000	0.000000	0.000000	0.000000	0.000000	1
38.668089	9.424132	0.000000	0.007810	-0.003182	0.000000	0.008433	-1.565782	0.000000	0.000000	0.000000	0.000000	0.000000	1
41.777081	9.424132	0.000000	0.007119	-0.003477	0.000000	0.007922	-0.545444	0.000000	0.000000	0.000000	0.000000	0.000000	1
44.886073	9.424132	0.000000	0.011664	-0.006846	0.000000	0.013525	4.485032	0.000000	0.000000	0.000000	0.000000	0.000000	1
47.995066	9.424132	0.000000	0.040966	0.019727	0.000000	0.045468	2.682109	0.000000	0.000000	0.000000	0.000000	0.000000	1
51.104058	9.424132	0.000000	0.049106	-0.022760	0.000000	0.054124	14.728615	0.000000	0.000000	0.000000	0.000000	0.000000	2
54.213050	9.424132	0.000000	0.040042	-0.027492	0.000000	0.048571	70.472769	0.000000	0.000000	0.000000	0.000000	0.000000	2
57.322042	9.424132	0.000000	-0.292518	0.297376	0.000000	0.417132	77.049444	0.000000	0.000000	0.000000	0.000000	0.000000	1
60.431034	9.424132	0.000000	-0.328442	0.323521	0.000000	0.461020	110.401840	0.000000	0.000000	0.000000	0.000000	0.000000	1
63.540026	9.424132	0.000000	-0.766459	0.864606	0.000000	1.155423	111.673636	0.000000	0.000000	0.000000	0.000000	0.000000	1
66.649018	9.424132	0.000000	-0.763734	0.905369	0.000000	1.184475	-32.338353	0.000000	0.000000	0.000000	0.000000	0.000000	1
69.758010	9.424132	0.000000	-0.522128	0.714155	0.000000	0.884667	-105.893197	0.000000	0.000000	0.000000	0.000000	0.000000	1
72.867002	9.424132	0.000000	-0.306373	0.508514	0.000000	0.593676	-126.386264	0.000000	0.000000	0.000000	0.000000	0.000000	1
75.975994	9.424132	0.000000	-0.254430	0.228086	0.000000	0.341699	-115.168286	0.000000	0.000000	0.000000	0.000000	0.000000	1
79.084987	9.424132	0.000000	-0.143740	0.075544	0.000000	0.162383	-49.891580	0.000000	0.000000	0.000000	0.000000	0.000000	2
82.193979	9.424132	0.000000	-0.009796	0.022255	0.000000	0.024315	-16.685210	0.000000	0.000000	0.000000	0.000000	0.000000	1
85.302971	9.424132	0.000000	-0.012239	0.002887	0.000000	0.012575	-7.421671	0.000000	0.000000	0.000000	0.000000	0.000000	1
88.411963	9.424132	0.000000	-0.013208	-0.016664	0.000000	0.021264	-4.520334	0.000000	0.000000	0.000000	0.000000	0.000000	1
91.520955	9.424132	0.000000	-0.020624	-0.028080	0.000000	0.034841	-1.011582	0.000000	0.000000	0.000000	0.000000	0.000000	1
94.629947	9.424132	0.000000	-0.009485	-0.025193	0.000000	0.026919	-0.710322	0.000000	0.000000	0.000000	0.000000	0.000000	1
97.738939	9.424132	0.000000	0.000730	-0.016531	0.000000	0.016547	-4.416779	0.000000	0.000000	0.000000	0.000000	0.000000	1
100.847931	9.424132	0.000000	0.011406	-0.036075	0.000000	0.037835	-0.144148	0.000000	0.000000	0.000000	0.000000	0.000000	2
103.956923	9.424132	0.000000	0.010842	-0.008153	0.000000	0.013566	5.813558	0.000000	0.000000	0.000000	0.000000	0.000000	2
107.065915	9.424132	0.000000	0.020546	0.022755	0.000000	0.030659	1.554545	0.000000	0.000000	0.000000	0.000000	0.000000	1
110.174908	9.424132	0.000000	0.009805	0.017079	0.000000	0.019694	-1.102543	0.000000	0.000000	0.000000	0.000000	0.000000	1
113.283900	9.424132	0.000000	0.002049	0.016465	0.000000	0.016592	-0.347798	0.000000	0.000000	0.000000	0.000000	0.000000	1
116.392892	9.424132	0.000000	-0.007357	0.004479	0.000000	0.008613	-0.558794	0.000000	0.000000	0.000000	0.000000	0.000000	1
119.501884	9.424132	0.000000	-0.007347	0.004003	0.000000	0.008367	-0.297973	0.000000	0.000000	0.000000	0.000000	0.000000	1
122.610876	9.424132	0.000000	-0.008625	0.004667	0.000000	0.009807	0.359513	0.000000	0.000000	0.000000	0.000000	0.000000	1
125.719868	9.424132	0.000000	-0.006272	0.008340	0.000000	0.010436	0.373053	0.000000	0.000000	0.000000	0.000000	0.000000	1
128.828860	9.424132	0.000000	-0.005234	0.006480	0.000000	0.008330	-0.317714	0.000000	0.000000	0.000000	0.000000	0.000000	1
131.937852	9.424132	0.000000	-0.005938	0.006497	0.000000	0.008802	-0.441692	0.000000	0.000000	0.000000	0.000000	0.000000	1
135.046844	9.424132	0.000000	-0.001285	0.005498	0.000000	0.005646	-0.240202	0.000000	0.000000	0.000000	0.000000	0.000000	1
138.155836	9.424132	0.000000	-0.001204	0.005126	0.000000	0.005266	-0.274980	0.000000	0.000000	0.000000	0.000000	0.000000	1
141.264829	9.424132	0.000000	-0.005421	-0.000661	0.000000	0.005462	0.283885	0.000000	0.000000	0.000000	0.000000	0.000000	1
144.373821	9.424132	0.000000	-0.004682	0.001826	0.000000	0.005026	1.269212	0.000000	0.000000	0.000000	0.000000	0.000000	1
147.482813	9.424132	0.000000	-0.002970	0.004823	0.000000	0.005665	0.858931	0.000000	0.000000	0.000000	0.000000	0.000000	1
150.591805	9.424132	0.000000	-0.008100	0.007387	0.000000	0.010962	0.029348	0.000000	0.000000	0.000000	0.000000	0.000000	1
153.700797	9.424132	0.000000	-0.008649	0.008399	0.000000	0.012056	-0.307491	0.000000	0.000000	0.000000	0.000000	0.000000	1
156.809789	9.424132	0.000000	-0.005228	0.007772	0.000000	0.009367	0.249692	0.000000	0.000000	0.000000	0.000000	0.000000	1
159.918781	9.424132	0.000000	-0.005635	0.008963	0.000000	0.010588	0.734771	0.000000	0.000000	0.000000	0.000000	0.000000	1
4.469176	12.533124	0.000000	0.003717	0.004778	0.000000	0.006054	-0.252914	0.000000	0.000000	0.000000	0.000000	0.000000	1
7.578168	12.533124	0.000000	0.003298	0.002610	0.000000	0.004206	0.109333	0.000000	0.000000	0.000000	0.000000	0.000000	1
10.687160	12.533124	0.000000	0.003353	0.004767	0.000000	0.005828	0.746408	0.000000	0.000000	0.000000	0.000000	0.000000	1
13.796152	12.533124	0.000000	0.004066	0.005422	0.000000	0.006777	1.262527	0.000000	0.000000	0.000000	0.000000	0.000000	1
16.905145	12.533124	0.000000	0.006792	0.007242	0.000000	0.009928	1.190006	0.000000	0.000000	0.000000	0.000000	0.000000	1
20.014137	12.533124	0.000000	0.002633	0.008182	0.000000	0.008595	0.793600	0.000000	0.000000	0.000000	0.000000	0.000000	1
23.123129	12.533124	0.000000	0.003591	0.008259	0.000000	0.009006	0.545579	0.000000	0.000000	0.000000	0.000000	0.000000	1
26.232121	12.533124	0.000000	0.002023	0.003395	0.000000	0.003952	2.877823	0.000000	0.000000	0.000000	0.000000	0.000000	1
29.341113	12.533124	0.000000	0.006866	0.023323	0.000000	0.024313	3.737814	0.000000	0.000000	0.000000	0.000000	0.000000	1
32.450105	12.533124	0.000000	0.007344	0.023628	0.000000	0.024743	-0.678575	0.000000	0.000000	0.000000	0.000000	0.000000	1
35.559097	12.533124	0.000000	0.002873	0.003239	0.000000	0.004329	-1.976483	0.000000	0.000000	0.000000	0.000000	0.000000	1
38.668089	12.533124	0.000000	0.000696	-0.000925	0.000000	0.001157	-0.117391	0.000000	0.000000	0.000000	0.000000	0.000000	1
41.777081	12.533124	0.000000	0.003150	-0.004240	0.000000	0.005282	-0.402769	0.000000	0.000000	0.000000	0.000000	0.000000	1
44.886073	12.533124	0.000000	0.010903	-0.009873	0.000000	0.014709	3.915903	0.000000	0.000000	0.000000	0.000000	0.000000	1
47.995066	12.533124	0.000000	0.006208	-0.010089	0.000000	0.011846	22.501827	0.000000	0.000000	0.000000	0.000000	0.000000	2
51.104058	12.533124	0.000000	0.029072	-0.013546	0.000000	0.032073	77.531214	0.000000	0.000000	0.000000	0.000000	0.000000	2
54.213050	12.533124	0.000000	-0.193217	0.195856	0.000000	0.275123	121.772089	0.000000	0.000000	0.000000	0.000000	0.000000	2
57.322042	12.533124	0.000000	-0.330589	0.302066	0.000000	0.447809	99.448187	0.000000	0.000000	0.000000	0.000000	0.000000	1
60.431034	12.533124	0.000000	-0.359738	0.351426	0.000000	0.502903	109.554379	0.000000	0.000000	0.000000	0.000000	0.000000	1
63.540026	12.533124	0.000000	-0.817386	0.872675	0.000000	1.195693	40.563911	0.000000	0.000000	0.000000	0.000000	0.000000	1
66.649018	12.533124	0.000000	-0.806480	0.850210	0.000000	1.171865	-101.344584	0.000000	0.000000	0.000000	0.000000	0.000000	1
69.758010	12.533124	0.000000	-0.342546	0.357573	0.000000	0.495172	-92.046240	0.000000	0.000000	0.000000	0.000000	0.000000	1
72.867002	12.533124	0.000000	-0.234307	0.320844	0.000000	0.397292	-61.270814	0.000000	0.000000	0.000000	0.000000	0.000000	1
75.975994	12.533124	0.000000	-0.179584	0.193735	0.000000	0.264166	-67.424808	0.000000	0.000000	0.000000	0.000000	0.000000	1
79.084987	12.533124	0.000000	-0.044503	0.070860	0.000000	0.083676	-40.659992	0.000000	0.000000	0.000000	0.000000	0.000000	1
82.193979	12.533124	0.000000	-0.006269	0.031532	0.000000	0.032150	-13.847477	0.000000	0.000000	0.000000	0.000000	0.000000	1
85.302971	12.533124	0.000000	-0.007818	0.024402	0.000000	0.025624	-3.991357	0.000000	0.000000	0.000000	0.000000	0.000000	1
88.411963	12.533124	0.000000	-0.006832	0.007227	0.000000	0.009945	-3.335230	0.000000	0.000000	0.000000	0.000000	0.000000	1
91.520955	12.533124	0.000000	-0.008604	0.003648	0.000000	0.009345	-0.503743	0.000000	0.000000	0.000000	0.000000	0.000000	1
94.629947	12.533124	0.000000	0.011843	0.023113	0.000000	0.025971	-0.510664	0.000000	0.000000	0.000000	0.000000	0.000000	2
97.738939	12.533124	0.000000	0.014067	0.019761	0.000000	0.024257	-5.085155	0.000000	0.000000	0.000000	0.000000	0.000000	2
100.847931	12.533124	0.000000	0.014181	0.000708	0.000000	0.014199	-2.200844	0.000000	0.000000	0.000000	0.000000	0.000000	1
103.956923	12.533124	0.000000	0.015099	0.010353	0.000000	0.018308	3.832947	0.000000	0.000000	0.000000	0.000000	0.000000	1
107.065915	12.533124	0.000000	0.006938	0.018018	0.000000	0.019308	4.723527	0.000000	0.000000	0.000000	0.000000	0.000000	1
110.174908	12.533124	0.000000	-0.006801	0.013802	0.000000	0.015386	1.488023	0.000000	0.000000	0.000000	0.000000	0.000000	1
113.283900	12.533124	0.000000	-0.007743	0.005633	0.000000	0.009575	-1.319918	0.000000	0.000000	0.000000	0.000000	0.000000	1
116.392892	12.533124	0.000000	-0.006120	0.007242	0.000000	0.009481	0.293612	0.000000	0.000000	0.000000	0.000000	0.000000	1
119.501884	12.533124	0.000000	-0.005339	0.011861	0.000000	0.013007	0.749474	0.000000	0.000000	0.000000	0.000000	0.000000	1
122.610876	12.533124	0.000000	-0.008327	0.010126	0.000000	0.013110	0.152784	0.000000	0.000000	0.000000	0.000000	0.000000	1
125.719868	12.533124	0.000000	-0.008582	0.008357	0.000000	0.011979	0.212460	0.000000	0.000000	0.000000	0.000000	0.000000	1
128.828860	12.533124	0.000000	-0.009390	0.008818	0.000000	0.012881	2.418685	0.000000	0.000000	0.000000	0.000000	0.000000	1
131.937852	12.533124	0.000000	-0.007998	0.010306	0.000000	0.013046	4.146500	0.000000	0.000000	0.000000	0.000000	0.000000	1
135.046844	12.533124	0.000000	-0.002734	0.003677	0.000000	0.004582	3.116761	0.000000	0.000000	0.000000	0.000000	0.000000	1
138.155836	12.533124	0.000000	-0.003893	0.003299	0.000000	0.005103	2.136998	0.000000	0.000000	0.000000	0.000000	0.000000	1
141.264829	12.533124	0.000000	-0.010122	0.005052	0.000000	0.011312	2.113578	0.000000	0.000000	0.000000	0.000000	0.000000	1
144.373821	12.533124	0.000000	-0.008422	0.005916	0.000000	0.010292	1.222994	0.000000	0.000000	0.000000	0.000000	0.000000	1
147.482813	12.533124	0.000000	-0.004721	0.003550	0.000000	0.005907	-0.113306	0.000000	0.000000	0.000000	0.000000	0.000000	1
150.591805	12.533124	0.000000	-0.003024	0.002479	0.000000	0.003910	-0.142812	0.000000	0.000000	0.000000	0.000000	0.000000	1
153.700797	12.533124	0.000000	-0.006057	0.004825	0.000000	0.007744	0.129173	0.000000	0.000000	0.000000	0.000000	0.000000	1
156.809789	12.533124	0.000000	-0.006151	0.006373	0.000000	0.008857	0.116555	0.000000	0.000000	0.000000	0.000000	0.000000	1
159.918781	12.533124	0.000000	-0.004133	0.008788	0.000000	0.009712	0.136084	0.000000	0.000000	0.000000	0.000000	0.000000	1
4.469176	15.642117	0.000000	0.001842	0.007426	0.000000	0.007651	0.318284	0.000000	0.000000	0.000000	0.000000	0.000000	1
7.578168	15.642117	0.000000	0.005060	0.008341	0.000000	0.009756	0.554538	0.000000	0.000000	0.000000	0.000000	0.000000	1
10.687160	15.642117	0.000000	0.001387	0.006003	0.000000	0.006161	0.932045	0.000000	0.000000	0.000000	0.000000	0.000000	1
13.796152	15.642117	0.000000	0.000949	0.006432	0.000000	0.006502	1.244250	0.000000	0.000000	0.000000	0.000000	0.000000	1
16.905145	15.642117	0.000000	-0.002395	0.007679	0.000000	0.008044	0.563272	0.000000	0.000000	0.000000	0.000000	0.000000	1
20.014137	15.642117	0.000000	0.000941	0.004072	0.000000	0.004179	-0.063107	0.000000	0.000000	0.000000	0.000000	0.000000	1
23.123129	15.642117	0.000000	0.001474	0.003566	0.000000	0.003859	0.531363	0.000000	0.000000	0.000000	0.000000	0.000000	1
26.232121	15.642117	0.000000	0.002730	0.004233	0.000000	0.005037	1.562245	0.000000	0.000000	0.000000	0.000000	0.000000	1
29.341113	15.642117	0.000000	0.000789	0.002940	0.000000	0.003044	1.477927	0.000000	0.000000	0.000000	0.000000	0.000000	1
32.450105	15.642117	0.000000	0.000144	0.002121	0.000000	0.002126	0.088171	0.000000	0.000000	0.000000	0.000000	0.000000	1
35.559097	15.642117	0.000000	-0.000804	-0.000441	0.000000	0.000917	0.732725	0.000000	0.000000	0.000000	0.000000	0.000000	1
38.668089	15.642117	0.000000	-0.000741	-0.001099	0.000000	0.001325	1.204600	0.000000	0.000000	0.000000	0.000000	0.000000	1
41.777081	15.642117	0.000000	0.001071	-0.005526	0.000000	0.005629	-2.024591	0.000000	0.000000	0.000000	0.000000	0.000000	1
44.886073	15.642117	0.000000	-0.008393	-0.030257	0.000000	0.031399	7.305265	0.000000	0.000000	0.000000	0.000000	0.000000	1
47.995066	15.642117	0.000000	-0.015899	-0.022662	0.000000	0.027683	64.423186	0.000000	0.000000	0.000000	0.000000	0.000000	1
51.104058	15.642117	0.000000	-0.189997	0.179778	0.000000	0.261570	123.748746	0.000000	0.000000	0.000000	0.000000	0.000000	2
54.213050	15.642117	0.000000	-0.596065	0.369845	0.000000	0.701484	98.570916	0.000000	0.000000	0.000000	0.000000	0.000000	1
57.322042	15.642117	0.000000	-0.717853	0.320482	0.000000	0.786144	67.912541	0.000000	0.000000	0.000000	0.000000	0.000000	1
60.431034	15.642117	0.000000	-0.609169	0.413664	0.000000	0.736346	55.489303	0.000000	0.000000	0.000000	0.000000	0.000000	2
63.540026	15.642117	0.000000	-0.574593	0.541948	0.000000	0.789851	-52.947726	0.000000	0.000000	0.000000	0.000000	0.000000	1
66.649018	15.642117	0.000000	-0.431098	0.278796	0.000000	0.513393	-124.126266	0.000000	0.000000	0.000000	0.000000	0.000000	1
69.758010	15.642117	0.000000	-0.334816	0.246412	0.000000	0.415717	-73.428403	0.000000	0.000000	0.000000	0.000000	0.000000	1
72.867002	15.642117	0.000000	-0.219950	0.238691	0.000000	0.324579	-51.111553	0.000000	0.000000	0.000000	0.000000	0.000000	1
75.975994	15.642117	0.000000	-0.058486	0.092328	0.000000	0.109294	-45.087962	0.000000	0.000000	0.000000	0.000000	0.000000	1
79.084987	15.642117	0.000000	-0.037764	0.078927	0.000000	0.087496	-20.760051	0.000000	0.000000	0.000000	0.000000	0.000000	1
82.193979	15.642117	0.000000	-0.001494	0.027469	0.000000	0.027510	-6.763219	0.000000	0.000000	0.000000	0.000000	0.000000	1
85.302971	15.642117	0.000000	-0.009365	0.025540	0.000000	0.027202	2.031036	0.000000	0.000000	0.000000	0.000000	0.000000	1
88.411963	15.642117	0.000000	-0.011256	0.031729	0.000000	0.033667	1.166007	0.000000	0.000000	0.000000	0.000000	0.000000	1
91.520955	15.642117	0.000000	-0.011401	0.031063	0.000000	0.033089	0.022326	0.000000	0.000000	0.000000	0.000000	0.000000	1
94.629947	15.642117	0.000000	0.006145	0.031985	0.000000	0.032570	-0.585493	0.000000	0.000000	0.000000	0.000000	0.000000	2
97.738939	15.642117	0.000000	0.010685	0.025027	0.000000	0.027212	-3.011960	0.000000	0.000000	0.000000	0.000000	0.000000	2
100.847931	15.642117	0.000000	0.016177	0.001512	0.000000	0.016248	-1.333287	0.000000	0.000000	0.000000	0.000000	0.000000	1
103.956923	15.642117	0.000000	0.006249	-0.004369	0.000000	0.007625	0.589002	0.000000	0.000000	0.000000	0.000000	0.000000	2
107.065915	15.642117	0.000000	0.006239	-0.015328	0.000000	0.016549	7.303912	0.000000	0.000000	0.000000	0.000000	0.000000	1
110.174908	15.642117	0.000000	0.002298	0.040269	0.000000	0.040334	3.538814	0.000000	0.000000	0.000000	0.000000	0.000000	1
113.283900	15.642117	0.000000	-0.007656	0.013716	0.000000	0.015708	-5.129251	0.000000	0.000000	0.000000	0.000000	0.000000	1
116.392892	15.642117	0.000000	-0.005246	0.008354	0.000000	0.009865	-0.872140	0.000000	0.000000	0.000000	0.000000	0.000000	1
119.501884	15.642117	0.000000	-0.011150	0.011740	0.000000	0.016191	1.145870	0.000000	0.000000	0.000000	0.000000	0.000000	1