TITLE = "PIV Result  2489 "
VARIABLES = "X (mm)""Y (mm)""Z (mm)""U (m/s)""V (m/s)""W (m/s)""Speed (m/s)""Vorticity""U-std""V-std""W-std""Speed-std""Vorticity-std""Flag"
ZONE T="ZONE 2489 "
I= 51 , J= 16 , K= 1 , F=POINT
DT=(DOUBLE DOUBLE DOUBLE DOUBLE DOUBLE DOUBLE DOUBLE DOUBLE DOUBLE DOUBLE DOUBLE DOUBLE DOUBLE DOUBLE)
4.469176	3.206148	0.000000	-0.001171	0.003262	0.000000	0.003466	0.548379	0.000000	0.000000	0.000000	0.000000	0.000000	1
7.578168	3.206148	0.000000	-0.002017	0.009648	0.000000	0.009856	-0.016457	0.000000	0.000000	0.000000	0.000000	0.000000	1
10.687160	3.206148	0.000000	-0.002012	0.009478	0.000000	0.009690	-1.440007	0.000000	0.000000	0.000000	0.000000	0.000000	1
13.796152	3.206148	0.000000	-0.006098	0.009749	0.000000	0.011499	-2.479531	0.000000	0.000000	0.000000	0.000000	0.000000	1
16.905145	3.206148	0.000000	-0.005995	0.009749	0.000000	0.011444	-1.921337	0.000000	0.000000	0.000000	0.000000	0.000000	1
20.014137	3.206148	0.000000	0.003337	0.005359	0.000000	0.006313	0.546476	0.000000	0.000000	0.000000	0.000000	0.000000	1
23.123129	3.206148	0.000000	0.002301	0.009534	0.000000	0.009808	1.642545	0.000000	0.000000	0.000000	0.000000	0.000000	1
26.232121	3.206148	0.000000	-0.000634	0.010982	0.000000	0.011000	-0.642906	0.000000	0.000000	0.000000	0.000000	0.000000	1
29.341113	3.206148	0.000000	-0.000390	0.006378	0.000000	0.006390	-0.667193	0.000000	0.000000	0.000000	0.000000	0.000000	1
32.450105	3.206148	0.000000	-0.001994	0.005175	0.000000	0.005546	2.070331	0.000000	0.000000	0.000000	0.000000	0.000000	1
35.559097	3.206148	0.000000	0.011213	0.000873	0.000000	0.011247	3.193816	0.000000	0.000000	0.000000	0.000000	0.000000	1
38.668089	3.206148	0.000000	0.009120	-0.000463	0.000000	0.009132	2.470255	0.000000	0.000000	0.000000	0.000000	0.000000	1
41.777081	3.206148	0.000000	0.003253	-0.000857	0.000000	0.003364	1.100425	0.000000	0.000000	0.000000	0.000000	0.000000	1
44.886073	3.206148	0.000000	-0.004369	0.000906	0.000000	0.004462	-0.591601	0.000000	0.000000	0.000000	0.000000	0.000000	1
47.995066	3.206148	0.000000	-0.002374	0.001600	0.000000	0.002863	-2.030551	0.000000	0.000000	0.000000	0.000000	0.000000	1
51.104058	3.206148	0.000000	0.005254	0.001216	0.000000	0.005393	-0.650818	0.000000	0.000000	0.000000	0.000000	0.000000	1
54.213050	3.206148	0.000000	0.001955	0.002172	0.000000	0.002922	6.800095	0.000000	0.000000	0.000000	0.000000	0.000000	1
57.322042	3.206148	0.000000	0.007776	-0.001999	0.000000	0.008028	17.957604	0.000000	0.000000	0.000000	0.000000	0.000000	1
60.431034	3.206148	0.000000	-0.037194	-0.004784	0.000000	0.037501	85.101388	0.000000	0.000000	0.000000	0.000000	0.000000	2
63.540026	3.206148	0.000000	-0.073340	0.002954	0.000000	0.073400	203.496623	0.000000	0.000000	0.000000	0.000000	0.000000	1
66.649018	3.206148	0.000000	-0.535959	0.327779	0.000000	0.628245	208.731974	0.000000	0.000000	0.000000	0.000000	0.000000	2
69.758010	3.206148	0.000000	-0.836110	0.844002	0.000000	1.188032	72.670876	0.000000	0.000000	0.000000	0.000000	0.000000	2
72.867002	3.206148	0.000000	-0.889475	0.845095	0.000000	1.226927	-112.684698	0.000000	0.000000	0.000000	0.000000	0.000000	1
75.975994	3.206148	0.000000	-0.524246	0.309325	0.000000	0.608700	-127.516415	0.000000	0.000000	0.000000	0.000000	0.000000	1
79.084987	3.206148	0.000000	-0.347781	0.215999	0.000000	0.409399	-45.290920	0.000000	0.000000	0.000000	0.000000	0.000000	1
82.193979	3.206148	0.000000	-0.339387	0.204433	0.000000	0.396203	-63.222776	0.000000	0.000000	0.000000	0.000000	0.000000	1
85.302971	3.206148	0.000000	0.015247	0.006339	0.000000	0.016512	-41.513467	0.000000	0.000000	0.000000	0.000000	0.000000	2
88.411963	3.206148	0.000000	0.045123	0.006539	0.000000	0.045594	-3.069228	0.000000	0.000000	0.000000	0.000000	0.000000	1
91.520955	3.206148	0.000000	0.023820	-0.002365	0.000000	0.023938	-2.225736	0.000000	0.000000	0.000000	0.000000	0.000000	1
94.629947	3.206148	0.000000	-0.027973	-0.004114	0.000000	0.028274	-0.431439	0.000000	0.000000	0.000000	0.000000	0.000000	2
97.738939	3.206148	0.000000	-0.034814	-0.005346	0.000000	0.035222	6.082887	0.000000	0.000000	0.000000	0.000000	0.000000	1
100.847931	3.206148	0.000000	0.001774	-0.000418	0.000000	0.001823	8.721996	0.000000	0.000000	0.000000	0.000000	0.000000	1
103.956923	3.206148	0.000000	0.001258	0.000376	0.000000	0.001312	7.343739	0.000000	0.000000	0.000000	0.000000	0.000000	1
107.065915	3.206148	0.000000	-0.003045	0.000049	0.000000	0.003046	6.214273	0.000000	0.000000	0.000000	0.000000	0.000000	1
110.174908	3.206148	0.000000	-0.000117	0.000009	0.000000	0.000117	5.687499	0.000000	0.000000	0.000000	0.000000	0.000000	1
113.283900	3.206148	0.000000	0.003165	0.000687	0.000000	0.003239	4.150008	0.000000	0.000000	0.000000	0.000000	0.000000	1
116.392892	3.206148	0.000000	-0.004704	-0.000138	0.000000	0.004706	1.713554	0.000000	0.000000	0.000000	0.000000	0.000000	1
119.501884	3.206148	0.000000	-0.002201	-0.000093	0.000000	0.002203	0.750454	0.000000	0.000000	0.000000	0.000000	0.000000	1
122.610876	3.206148	0.000000	-0.000535	0.000912	0.000000	0.001057	1.750157	0.000000	0.000000	0.000000	0.000000	0.000000	1
125.719868	3.206148	0.000000	-0.001802	0.000909	0.000000	0.002019	2.420260	0.000000	0.000000	0.000000	0.000000	0.000000	1
128.828860	3.206148	0.000000	-0.004257	0.000293	0.000000	0.004267	2.880496	0.000000	0.000000	0.000000	0.000000	0.000000	1
131.937852	3.206148	0.000000	-0.001560	0.000491	0.000000	0.001636	3.332209	0.000000	0.000000	0.000000	0.000000	0.000000	1
135.046844	3.206148	0.000000	-0.000992	0.011539	0.000000	0.011582	0.759708	0.000000	0.000000	0.000000	0.000000	0.000000	1
138.155836	3.206148	0.000000	-0.004196	0.005988	0.000000	0.007312	-0.864705	0.000000	0.000000	0.000000	0.000000	0.000000	1
141.264829	3.206148	0.000000	-0.004332	0.005838	0.000000	0.007270	0.116388	0.000000	0.000000	0.000000	0.000000	0.000000	1
144.373821	3.206148	0.000000	-0.002160	0.002755	0.000000	0.003501	0.406358	0.000000	0.000000	0.000000	0.000000	0.000000	1
147.482813	3.206148	0.000000	-0.005835	0.004512	0.000000	0.007376	-0.428347	0.000000	0.000000	0.000000	0.000000	0.000000	1
150.591805	3.206148	0.000000	-0.006571	0.007902	0.000000	0.010277	-1.488605	0.000000	0.000000	0.000000	0.000000	0.000000	1
153.700797	3.206148	0.000000	-0.009661	0.003118	0.000000	0.010151	-0.049531	0.000000	0.000000	0.000000	0.000000	0.000000	1
156.809789	3.206148	0.000000	-0.008640	0.003741	0.000000	0.009415	1.528359	0.000000	0.000000	0.000000	0.000000	0.000000	1
159.918781	3.206148	0.000000	-0.004975	0.004575	0.000000	0.006759	1.669054	0.000000	0.000000	0.000000	0.000000	0.000000	1
4.469176	6.315140	0.000000	0.001312	0.004055	0.000000	0.004262	0.071663	0.000000	0.000000	0.000000	0.000000	0.000000	1
7.578168	6.315140	0.000000	0.000085	0.005666	0.000000	0.005666	-0.297931	0.000000	0.000000	0.000000	0.000000	0.000000	1
10.687160	6.315140	0.000000	0.000109	0.006444	0.000000	0.006445	-1.091309	0.000000	0.000000	0.000000	0.000000	0.000000	1
13.796152	6.315140	0.000000	0.002802	0.002903	0.000000	0.004035	-1.483050	0.000000	0.000000	0.000000	0.000000	0.000000	1
16.905145	6.315140	0.000000	0.002813	0.004069	0.000000	0.004947	-1.290449	0.000000	0.000000	0.000000	0.000000	0.000000	1
20.014137	6.315140	0.000000	-0.000663	0.005915	0.000000	0.005952	-0.085032	0.000000	0.000000	0.000000	0.000000	0.000000	1
23.123129	6.315140	0.000000	-0.000077	0.009509	0.000000	0.009509	0.551072	0.000000	0.000000	0.000000	0.000000	0.000000	1
26.232121	6.315140	0.000000	-0.000104	0.012491	0.000000	0.012492	-1.305310	0.000000	0.000000	0.000000	0.000000	0.000000	1
29.341113	6.315140	0.000000	0.001409	0.005149	0.000000	0.005339	-1.138897	0.000000	0.000000	0.000000	0.000000	0.000000	1
32.450105	6.315140	0.000000	-0.007031	0.009091	0.000000	0.011492	0.958389	0.000000	0.000000	0.000000	0.000000	0.000000	1
35.559097	6.315140	0.000000	-0.007585	0.009327	0.000000	0.012022	0.856931	0.000000	0.000000	0.000000	0.000000	0.000000	1
38.668089	6.315140	0.000000	-0.001537	0.001157	0.000000	0.001924	0.114780	0.000000	0.000000	0.000000	0.000000	0.000000	1
41.777081	6.315140	0.000000	-0.001496	-0.003084	0.000000	0.003428	-0.448475	0.000000	0.000000	0.000000	0.000000	0.000000	1
44.886073	6.315140	0.000000	-0.005836	-0.008150	0.000000	0.010024	-1.715206	0.000000	0.000000	0.000000	0.000000	0.000000	1
47.995066	6.315140	0.000000	0.006947	-0.011262	0.000000	0.013232	-1.928767	0.000000	0.000000	0.000000	0.000000	0.000000	1
51.104058	6.315140	0.000000	0.009892	-0.011901	0.000000	0.015475	-0.663430	0.000000	0.000000	0.000000	0.000000	0.000000	1
54.213050	6.315140	0.000000	-0.024770	-0.028057	0.000000	0.037427	10.325839	0.000000	0.000000	0.000000	0.000000	0.000000	1
57.322042	6.315140	0.000000	-0.027036	-0.007745	0.000000	0.028124	39.161267	0.000000	0.000000	0.000000	0.000000	0.000000	2
60.431034	6.315140	0.000000	-0.101954	0.041111	0.000000	0.109931	118.571251	0.000000	0.000000	0.000000	0.000000	0.000000	2
63.540026	6.315140	0.000000	-0.578776	0.375856	0.000000	0.690108	189.024857	0.000000	0.000000	0.000000	0.000000	0.000000	2
66.649018	6.315140	0.000000	-0.856651	0.842909	0.000000	1.201810	147.415961	0.000000	0.000000	0.000000	0.000000	0.000000	1
69.758010	6.315140	0.000000	-0.856399	0.963491	0.000000	1.289083	27.126684	0.000000	0.000000	0.000000	0.000000	0.000000	1
72.867002	6.315140	0.000000	-0.815821	0.941712	0.000000	1.245948	-104.727346	0.000000	0.000000	0.000000	0.000000	0.000000	1
75.975994	6.315140	0.000000	-0.490782	0.257304	0.000000	0.554141	-113.434850	0.000000	0.000000	0.000000	0.000000	0.000000	1
79.084987	6.315140	0.000000	-0.323676	0.149702	0.000000	0.356618	-56.418416	0.000000	0.000000	0.000000	0.000000	0.000000	1
82.193979	6.315140	0.000000	-0.139478	0.080542	0.000000	0.161062	-52.330931	0.000000	0.000000	0.000000	0.000000	0.000000	2
85.302971	6.315140	0.000000	0.041736	0.023535	0.000000	0.047914	-24.654393	0.000000	0.000000	0.000000	0.000000	0.000000	2
88.411963	6.315140	0.000000	0.036202	0.006139	0.000000	0.036719	0.827543	0.000000	0.000000	0.000000	0.000000	0.000000	1
91.520955	6.315140	0.000000	0.020856	-0.000248	0.000000	0.020857	-3.085087	0.000000	0.000000	0.000000	0.000000	0.000000	1
94.629947	6.315140	0.000000	-0.021131	-0.018896	0.000000	0.028348	-2.142711	0.000000	0.000000	0.000000	0.000000	0.000000	1
97.738939	6.315140	0.000000	-0.045782	-0.002882	0.000000	0.045873	1.865661	0.000000	0.000000	0.000000	0.000000	0.000000	1
100.847931	6.315140	0.000000	-0.030429	0.005756	0.000000	0.030969	2.480431	0.000000	0.000000	0.000000	0.000000	0.000000	1
103.956923	6.315140	0.000000	-0.015772	0.007458	0.000000	0.017446	1.598930	0.000000	0.000000	0.000000	0.000000	0.000000	1
107.065915	6.315140	0.000000	-0.020721	0.012677	0.000000	0.024292	-0.019193	0.000000	0.000000	0.000000	0.000000	0.000000	1
110.174908	6.315140	0.000000	-0.021643	0.011197	0.000000	0.024368	-1.722580	0.000000	0.000000	0.000000	0.000000	0.000000	1
113.283900	6.315140	0.000000	-0.017732	0.001144	0.000000	0.017769	-1.077628	0.000000	0.000000	0.000000	0.000000	0.000000	1
116.392892	6.315140	0.000000	-0.004896	-0.000558	0.000000	0.004928	0.959798	0.000000	0.000000	0.000000	0.000000	0.000000	1
119.501884	6.315140	0.000000	-0.003769	0.000384	0.000000	0.003789	1.043278	0.000000	0.000000	0.000000	0.000000	0.000000	1
122.610876	6.315140	0.000000	-0.004940	-0.000010	0.000000	0.004940	1.134287	0.000000	0.000000	0.000000	0.000000	0.000000	1
125.719868	6.315140	0.000000	-0.010123	0.002446	0.000000	0.010415	0.879816	0.000000	0.000000	0.000000	0.000000	0.000000	1
128.828860	6.315140	0.000000	-0.013390	0.000528	0.000000	0.013400	1.217332	0.000000	0.000000	0.000000	0.000000	0.000000	1
131.937852	6.315140	0.000000	-0.006239	0.007422	0.000000	0.009696	2.305232	0.000000	0.000000	0.000000	0.000000	0.000000	1
135.046844	6.315140	0.000000	-0.001296	0.011927	0.000000	0.011997	1.418646	0.000000	0.000000	0.000000	0.000000	0.000000	1
138.155836	6.315140	0.000000	-0.004361	0.005922	0.000000	0.007354	0.453125	0.000000	0.000000	0.000000	0.000000	0.000000	1
141.264829	6.315140	0.000000	-0.004491	0.006083	0.000000	0.007561	1.012541	0.000000	0.000000	0.000000	0.000000	0.000000	1
144.373821	6.315140	0.000000	-0.005269	0.007011	0.000000	0.008770	1.065172	0.000000	0.000000	0.000000	0.000000	0.000000	1
147.482813	6.315140	0.000000	-0.003386	0.008534	0.000000	0.009182	0.022919	0.000000	0.000000	0.000000	0.000000	0.000000	1
150.591805	6.315140	0.000000	-0.000554	0.004342	0.000000	0.004377	-0.748547	0.000000	0.000000	0.000000	0.000000	0.000000	1
153.700797	6.315140	0.000000	-0.012529	0.003030	0.000000	0.012890	-0.133886	0.000000	0.000000	0.000000	0.000000	0.000000	1
156.809789	6.315140	0.000000	-0.011362	0.005445	0.000000	0.012599	0.699237	0.000000	0.000000	0.000000	0.000000	0.000000	1
159.918781	6.315140	0.000000	-0.009568	0.007673	0.000000	0.012265	0.977189	0.000000	0.000000	0.000000	0.000000	0.000000	1
4.469176	9.424132	0.000000	0.001345	0.007547	0.000000	0.007666	0.107682	0.000000	0.000000	0.000000	0.000000	0.000000	1
7.578168	9.424132	0.000000	0.001702	0.005068	0.000000	0.005346	-0.010227	0.000000	0.000000	0.000000	0.000000	0.000000	1
10.687160	9.424132	0.000000	0.002356	0.003466	0.000000	0.004191	-0.011665	0.000000	0.000000	0.000000	0.000000	0.000000	1
13.796152	9.424132	0.000000	0.004125	0.006029	0.000000	0.007305	0.172470	0.000000	0.000000	0.000000	0.000000	0.000000	1
16.905145	9.424132	0.000000	0.006397	0.008266	0.000000	0.010452	-0.175215	0.000000	0.000000	0.000000	0.000000	0.000000	1
20.014137	9.424132	0.000000	0.005452	0.009419	0.000000	0.010883	-0.340708	0.000000	0.000000	0.000000	0.000000	0.000000	1
23.123129	9.424132	0.000000	0.001277	0.011084	0.000000	0.011157	-0.378033	0.000000	0.000000	0.000000	0.000000	0.000000	1
26.232121	9.424132	0.000000	0.007220	0.012271	0.000000	0.014237	-1.353329	0.000000	0.000000	0.000000	0.000000	0.000000	1
29.341113	9.424132	0.000000	0.002823	0.008390	0.000000	0.008852	-1.269969	0.000000	0.000000	0.000000	0.000000	0.000000	1
32.450105	9.424132	0.000000	-0.003642	0.009183	0.000000	0.009879	-0.808615	0.000000	0.000000	0.000000	0.000000	0.000000	1
35.559097	9.424132	0.000000	-0.008069	0.010010	0.000000	0.012857	-1.803656	0.000000	0.000000	0.000000	0.000000	0.000000	1
38.668089	9.424132	0.000000	0.000890	0.003559	0.000000	0.003669	-2.281258	0.000000	0.000000	0.000000	0.000000	0.000000	1
41.777081	9.424132	0.000000	0.000318	0.000740	0.000000	0.000806	-1.406321	0.000000	0.000000	0.000000	0.000000	0.000000	1
44.886073	9.424132	0.000000	0.000367	0.000287	0.000000	0.000466	-0.500912	0.000000	0.000000	0.000000	0.000000	0.000000	1
47.995066	9.424132	0.000000	0.009480	-0.009630	0.000000	0.013513	0.766226	0.000000	0.000000	0.000000	0.000000	0.000000	1
51.104058	9.424132	0.000000	0.002283	-0.015020	0.000000	0.015192	1.126201	0.000000	0.000000	0.000000	0.000000	0.000000	1
54.213050	9.424132	0.000000	-0.031523	-0.020678	0.000000	0.037700	27.625359	0.000000	0.000000	0.000000	0.000000	0.000000	1
57.322042	9.424132	0.000000	-0.107090	0.051915	0.000000	0.119010	88.998784	0.000000	0.000000	0.000000	0.000000	0.000000	2
60.431034	9.424132	0.000000	-0.366222	0.229724	0.000000	0.432310	147.949594	0.000000	0.000000	0.000000	0.000000	0.000000	1
63.540026	9.424132	0.000000	-0.834147	0.695136	0.000000	1.085825	124.959938	0.000000	0.000000	0.000000	0.000000	0.000000	1
66.649018	9.424132	0.000000	-0.865684	0.814624	0.000000	1.188706	19.492533	0.000000	0.000000	0.000000	0.000000	0.000000	1
69.758010	9.424132	0.000000	-0.827913	0.933289	0.000000	1.247585	-67.033292	0.000000	0.000000	0.000000	0.000000	0.000000	1
72.867002	9.424132	0.000000	-0.660318	0.690223	0.000000	0.955211	-112.683147	0.000000	0.000000	0.000000	0.000000	0.000000	1
75.975994	9.424132	0.000000	-0.718300	0.548018	0.000000	0.903482	-133.333055	0.000000	0.000000	0.000000	0.000000	0.000000	1
79.084987	9.424132	0.000000	-0.177517	0.093303	0.000000	0.200543	-91.932833	0.000000	0.000000	0.000000	0.000000	0.000000	2
82.193979	9.424132	0.000000	-0.039393	0.049665	0.000000	0.063391	-33.152609	0.000000	0.000000	0.000000	0.000000	0.000000	1
85.302971	9.424132	0.000000	0.007520	0.016245	0.000000	0.017901	-7.857146	0.000000	0.000000	0.000000	0.000000	0.000000	1
88.411963	9.424132	0.000000	0.025246	0.047822	0.000000	0.054076	-0.003242	0.000000	0.000000	0.000000	0.000000	0.000000	1
91.520955	9.424132	0.000000	0.016983	0.038780	0.000000	0.042335	-5.302350	0.000000	0.000000	0.000000	0.000000	0.000000	1
94.629947	9.424132	0.000000	-0.003592	0.022642	0.000000	0.022925	-1.610021	0.000000	0.000000	0.000000	0.000000	0.000000	1
97.738939	9.424132	0.000000	-0.020592	0.049882	0.000000	0.053965	1.250649	0.000000	0.000000	0.000000	0.000000	0.000000	1
100.847931	9.424132	0.000000	-0.025943	0.041151	0.000000	0.048647	-2.601498	0.000000	0.000000	0.000000	0.000000	0.000000	1
103.956923	9.424132	0.000000	0.004466	0.047168	0.000000	0.047379	-4.524472	0.000000	0.000000	0.000000	0.000000	0.000000	1
107.065915	9.424132	0.000000	-0.008147	0.040208	0.000000	0.041025	-3.828241	0.000000	0.000000	0.000000	0.000000	0.000000	1
110.174908	9.424132	0.000000	0.000654	0.033354	0.000000	0.033360	-5.968648	0.000000	0.000000	0.000000	0.000000	0.000000	1
113.283900	9.424132	0.000000	-0.012476	0.000591	0.000000	0.012490	-4.382241	0.000000	0.000000	0.000000	0.000000	0.000000	1
116.392892	9.424132	0.000000	-0.006340	-0.001939	0.000000	0.006630	1.301358	0.000000	0.000000	0.000000	0.000000	0.000000	1
119.501884	9.424132	0.000000	-0.007222	0.002826	0.000000	0.007756	1.455310	0.000000	0.000000	0.000000	0.000000	0.000000	1
122.610876	9.424132	0.000000	-0.007276	0.003442	0.000000	0.008049	-0.287632	0.000000	0.000000	0.000000	0.000000	0.000000	1
125.719868	9.424132	0.000000	-0.006268	0.002943	0.000000	0.006925	-0.728720	0.000000	0.000000	0.000000	0.000000	0.000000	1
128.828860	9.424132	0.000000	-0.008599	0.004854	0.000000	0.009875	0.067936	0.000000	0.000000	0.000000	0.000000	0.000000	1
131.937852	9.424132	0.000000	-0.009708	0.002390	0.000000	0.009998	0.573548	0.000000	0.000000	0.000000	0.000000	0.000000	1
135.046844	9.424132	0.000000	-0.008838	-0.000337	0.000000	0.008844	2.005837	0.000000	0.000000	0.000000	0.000000	0.000000	1
138.155836	9.424132	0.000000	-0.007030	0.008505	0.000000	0.011035	2.123550	0.000000	0.000000	0.000000	0.000000	0.000000	1
141.264829	9.424132	0.000000	-0.009084	0.010056	0.000000	0.013552	1.437332	0.000000	0.000000	0.000000	0.000000	0.000000	1
144.373821	9.424132	0.000000	-0.012298	0.012267	0.000000	0.017370	1.039257	0.000000	0.000000	0.000000	0.000000	0.000000	1
147.482813	9.424132	0.000000	-0.006069	0.007710	0.000000	0.009812	0.093079	0.000000	0.000000	0.000000	0.000000	0.000000	1
150.591805	9.424132	0.000000	-0.006825	0.002168	0.000000	0.007161	0.346851	0.000000	0.000000	0.000000	0.000000	0.000000	1
153.700797	9.424132	0.000000	-0.006143	0.004270	0.000000	0.007482	0.369333	0.000000	0.000000	0.000000	0.000000	0.000000	1
156.809789	9.424132	0.000000	-0.008038	0.008175	0.000000	0.011465	-0.218662	0.000000	0.000000	0.000000	0.000000	0.000000	1
159.918781	9.424132	0.000000	-0.011680	0.008933	0.000000	0.014704	-0.405418	0.000000	0.000000	0.000000	0.000000	0.000000	1
4.469176	12.533124	0.000000	-0.003499	0.006258	0.000000	0.007170	-0.071916	0.000000	0.000000	0.000000	0.000000	0.000000	1
7.578168	12.533124	0.000000	-0.000881	0.005168	0.000000	0.005243	-0.103079	0.000000	0.000000	0.000000	0.000000	0.000000	1
10.687160	12.533124	0.000000	0.001338	0.006262	0.000000	0.006404	-0.187356	0.000000	0.000000	0.000000	0.000000	0.000000	1
13.796152	12.533124	0.000000	0.002958	0.007365	0.000000	0.007937	0.156201	0.000000	0.000000	0.000000	0.000000	0.000000	1
16.905145	12.533124	0.000000	0.006830	0.008883	0.000000	0.011205	0.961870	0.000000	0.000000	0.000000	0.000000	0.000000	1
20.014137	12.533124	0.000000	0.007598	0.009665	0.000000	0.012294	1.577807	0.000000	0.000000	0.000000	0.000000	0.000000	1
23.123129	12.533124	0.000000	0.004590	0.014540	0.000000	0.015248	0.886710	0.000000	0.000000	0.000000	0.000000	0.000000	1
26.232121	12.533124	0.000000	0.005895	0.011577	0.000000	0.012991	0.339620	0.000000	0.000000	0.000000	0.000000	0.000000	1
29.341113	12.533124	0.000000	0.002784	0.008669	0.000000	0.009105	-0.324437	0.000000	0.000000	0.000000	0.000000	0.000000	1
32.450105	12.533124	0.000000	0.002058	0.007406	0.000000	0.007687	-2.579502	0.000000	0.000000	0.000000	0.000000	0.000000	1
35.559097	12.533124	0.000000	0.000531	0.008809	0.000000	0.008825	-2.867170	0.000000	0.000000	0.000000	0.000000	0.000000	1
38.668089	12.533124	0.000000	0.002862	0.011447	0.000000	0.011799	-1.867571	0.000000	0.000000	0.000000	0.000000	0.000000	1
41.777081	12.533124	0.000000	0.000665	0.002095	0.000000	0.002198	-0.392881	0.000000	0.000000	0.000000	0.000000	0.000000	1
44.886073	12.533124	0.000000	-0.003320	0.003558	0.000000	0.004866	1.730932	0.000000	0.000000	0.000000	0.000000	0.000000	1
47.995066	12.533124	0.000000	-0.010862	0.007940	0.000000	0.013455	1.616528	0.000000	0.000000	0.000000	0.000000	0.000000	1
51.104058	12.533124	0.000000	-0.018429	-0.004442	0.000000	0.018957	-0.055422	0.000000	0.000000	0.000000	0.000000	0.000000	1
54.213050	12.533124	0.000000	-0.034146	-0.008985	0.000000	0.035308	39.135438	0.000000	0.000000	0.000000	0.000000	0.000000	1
57.322042	12.533124	0.000000	-0.310430	0.214164	0.000000	0.377138	102.310741	0.000000	0.000000	0.000000	0.000000	0.000000	1
60.431034	12.533124	0.000000	-0.521361	0.639049	0.000000	0.824743	109.269449	0.000000	0.000000	0.000000	0.000000	0.000000	1
63.540026	12.533124	0.000000	-0.826288	0.854202	0.000000	1.188449	56.876652	0.000000	0.000000	0.000000	0.000000	0.000000	2
66.649018	12.533124	0.000000	-0.749621	0.968054	0.000000	1.224361	-48.516212	0.000000	0.000000	0.000000	0.000000	0.000000	1
69.758010	12.533124	0.000000	-0.474224	0.623804	0.000000	0.783594	-106.731481	0.000000	0.000000	0.000000	0.000000	0.000000	1
72.867002	12.533124	0.000000	-0.553205	0.584796	0.000000	0.804998	-116.891950	0.000000	0.000000	0.000000	0.000000	0.000000	1
75.975994	12.533124	0.000000	-0.342522	0.353542	0.000000	0.492254	-147.174199	0.000000	0.000000	0.000000	0.000000	0.000000	2
79.084987	12.533124	0.000000	-0.062306	0.074894	0.000000	0.097422	-91.478643	0.000000	0.000000	0.000000	0.000000	0.000000	2
82.193979	12.533124	0.000000	-0.021603	0.029333	0.000000	0.036430	-17.450352	0.000000	0.000000	0.000000	0.000000	0.000000	1
85.302971	12.533124	0.000000	0.049424	0.035411	0.000000	0.060801	-3.052377	0.000000	0.000000	0.000000	0.000000	0.000000	1
88.411963	12.533124	0.000000	0.050211	0.059260	0.000000	0.077672	-3.919137	0.000000	0.000000	0.000000	0.000000	0.000000	1
91.520955	12.533124	0.000000	0.020990	0.049886	0.000000	0.054122	-10.910216	0.000000	0.000000	0.000000	0.000000	0.000000	1
94.629947	12.533124	0.000000	-0.005788	0.032395	0.000000	0.032908	-4.278573	0.000000	0.000000	0.000000	0.000000	0.000000	1
97.738939	12.533124	0.000000	-0.015244	0.051632	0.000000	0.053835	1.362074	0.000000	0.000000	0.000000	0.000000	0.000000	1
100.847931	12.533124	0.000000	-0.021875	0.086807	0.000000	0.089520	-5.819069	0.000000	0.000000	0.000000	0.000000	0.000000	1
103.956923	12.533124	0.000000	0.012942	0.058375	0.000000	0.059793	-10.353376	0.000000	0.000000	0.000000	0.000000	0.000000	2
107.065915	12.533124	0.000000	-0.023549	0.032394	0.000000	0.040049	-5.931539	0.000000	0.000000	0.000000	0.000000	0.000000	1
110.174908	12.533124	0.000000	-0.021617	0.010133	0.000000	0.023874	-4.397648	0.000000	0.000000	0.000000	0.000000	0.000000	1
113.283900	12.533124	0.000000	-0.007971	-0.018306	0.000000	0.019966	-1.729397	0.000000	0.000000	0.000000	0.000000	0.000000	2
116.392892	12.533124	0.000000	-0.004265	0.003658	0.000000	0.005619	2.637357	0.000000	0.000000	0.000000	0.000000	0.000000	1
119.501884	12.533124	0.000000	-0.006297	0.018843	0.000000	0.019868	1.614460	0.000000	0.000000	0.000000	0.000000	0.000000	1
122.610876	12.533124	0.000000	-0.008415	0.020642	0.000000	0.022292	-1.212195	0.000000	0.000000	0.000000	0.000000	0.000000	1
125.719868	12.533124	0.000000	-0.004644	0.005396	0.000000	0.007119	-3.099280	0.000000	0.000000	0.000000	0.000000	0.000000	1
128.828860	12.533124	0.000000	-0.014674	0.005355	0.000000	0.015621	-2.074082	0.000000	0.000000	0.000000	0.000000	0.000000	1
131.937852	12.533124	0.000000	-0.013387	-0.001021	0.000000	0.013426	-1.295805	0.000000	0.000000	0.000000	0.000000	0.000000	1
135.046844	12.533124	0.000000	-0.011292	-0.006972	0.000000	0.013271	0.747437	0.000000	0.000000	0.000000	0.000000	0.000000	1
138.155836	12.533124	0.000000	-0.007049	0.008309	0.000000	0.010896	1.071277	0.000000	0.000000	0.000000	0.000000	0.000000	1
141.264829	12.533124	0.000000	-0.009759	0.010261	0.000000	0.014161	0.348994	0.000000	0.000000	0.000000	0.000000	0.000000	1
144.373821	12.533124	0.000000	-0.014785	0.012704	0.000000	0.019494	0.718764	0.000000	0.000000	0.000000	0.000000	0.000000	1
147.482813	12.533124	0.000000	-0.011394	0.006042	0.000000	0.012897	0.600755	0.000000	0.000000	0.000000	0.000000	0.000000	1
150.591805	12.533124	0.000000	-0.011934	0.000976	0.000000	0.011974	0.783181	0.000000	0.000000	0.000000	0.000000	0.000000	1
153.700797	12.533124	0.000000	-0.006017	0.002799	0.000000	0.006636	0.483964	0.000000	0.000000	0.000000	0.000000	0.000000	1
156.809789	12.533124	0.000000	-0.005919	0.004132	0.000000	0.007219	0.007863	0.000000	0.000000	0.000000	0.000000	0.000000	1
159.918781	12.533124	0.000000	-0.006389	0.003968	0.000000	0.007521	-0.405959	0.000000	0.000000	0.000000	0.000000	0.000000	1
4.469176	15.642117	0.000000	-0.003251	0.005616	0.000000	0.006489	-0.270407	0.000000	0.000000	0.000000	0.000000	0.000000	1
7.578168	15.642117	0.000000	0.002088	0.005171	0.000000	0.005577	-0.239289	0.000000	0.000000	0.000000	0.000000	0.000000	1
10.687160	15.642117	0.000000	0.007497	0.008443	0.000000	0.011291	-0.631255	0.000000	0.000000	0.000000	0.000000	0.000000	1
13.796152	15.642117	0.000000	0.006983	0.008683	0.000000	0.011143	-0.462600	0.000000	0.000000	0.000000	0.000000	0.000000	1
16.905145	15.642117	0.000000	0.002155	0.008903	0.000000	0.009160	1.002373	0.000000	0.000000	0.000000	0.000000	0.000000	1
20.014137	15.642117	0.000000	-0.001425	0.012116	0.000000	0.012199	1.763580	0.000000	0.000000	0.000000	0.000000	0.000000	1
23.123129	15.642117	0.000000	-0.002754	0.011986	0.000000	0.012298	0.389741	0.000000	0.000000	0.000000	0.000000	0.000000	1
26.232121	15.642117	0.000000	-0.000483	0.004849	0.000000	0.004873	0.684945	0.000000	0.000000	0.000000	0.000000	0.000000	1
29.341113	15.642117	0.000000	-0.002125	0.010483	0.000000	0.010696	2.228599	0.000000	0.000000	0.000000	0.000000	0.000000	1
32.450105	15.642117	0.000000	0.029472	0.023725	0.000000	0.037835	0.392124	0.000000	0.000000	0.000000	0.000000	0.000000	1
35.559097	15.642117	0.000000	0.006010	0.019786	0.000000	0.020679	-1.839753	0.000000	0.000000	0.000000	0.000000	0.000000	2
38.668089	15.642117	0.000000	0.002416	0.012754	0.000000	0.012981	-1.447846	0.000000	0.000000	0.000000	0.000000	0.000000	1
41.777081	15.642117	0.000000	-0.004778	0.008068	0.000000	0.009377	0.077335	0.000000	0.000000	0.000000	0.000000	0.000000	1
44.886073	15.642117	0.000000	-0.008699	0.004298	0.000000	0.009703	0.911312	0.000000	0.000000	0.000000	0.000000	0.000000	1
47.995066	15.642117	0.000000	-0.009794	0.007297	0.000000	0.012214	0.427146	0.000000	0.000000	0.000000	0.000000	0.000000	1
51.104058	15.642117	0.000000	-0.013079	0.012835	0.000000	0.018324	-2.227630	0.000000	0.000000	0.000000	0.000000	0.000000	1
54.213050	15.642117	0.000000	-0.050881	-0.018540	0.000000	0.054153	33.454551	0.000000	0.000000	0.000000	0.000000	0.000000	1
57.322042	15.642117	0.000000	-0.280549	0.254529	0.000000	0.378804	65.886152	0.000000	0.000000	0.000000	0.000000	0.000000	1
60.431034	15.642117	0.000000	-0.511857	0.467751	0.000000	0.693389	41.498745	0.000000	0.000000	0.000000	0.000000	0.000000	2
63.540026	15.642117	0.000000	-0.776119	0.642280	0.000000	1.007414	11.579251	0.000000	0.000000	0.000000	0.000000	0.000000	2
66.649018	15.642117	0.000000	-0.695657	0.779927	0.000000	1.045096	-57.790387	0.000000	0.000000	0.000000	0.000000	0.000000	1
69.758010	15.642117	0.000000	-0.398038	0.486185	0.000000	0.628339	-87.548478	0.000000	0.000000	0.000000	0.000000	0.000000	1
72.867002	15.642117	0.000000	-0.296845	0.409468	0.000000	0.505748	-78.647526	0.000000	0.000000	0.000000	0.000000	0.000000	1
75.975994	15.642117	0.000000	-0.105237	0.274526	0.000000	0.294006	-88.673203	0.000000	0.000000	0.000000	0.000000	0.000000	2
79.084987	15.642117	0.000000	-0.054255	0.078538	0.000000	0.095456	-47.851075	0.000000	0.000000	0.000000	0.000000	0.000000	2
82.193979	15.642117	0.000000	0.007818	0.052840	0.000000	0.053415	-8.750249	0.000000	0.000000	0.000000	0.000000	0.000000	1
85.302971	15.642117	0.000000	0.044689	0.055388	0.000000	0.071169	2.449974	0.000000	0.000000	0.000000	0.000000	0.000000	1
88.411963	15.642117	0.000000	0.053640	0.068855	0.000000	0.087283	-0.035136	0.000000	0.000000	0.000000	0.000000	0.000000	2
91.520955	15.642117	0.000000	0.077691	0.061094	0.000000	0.098835	-9.809188	0.000000	0.000000	0.000000	0.000000	0.000000	1
94.629947	15.642117	0.000000	0.016473	0.046280	0.000000	0.049125	-7.402802	0.000000	0.000000	0.000000	0.000000	0.000000	1
97.738939	15.642117	0.000000	0.019677	0.081192	0.000000	0.083543	0.838174	0.000000	0.000000	0.000000	0.000000	0.000000	1
100.847931	15.642117	0.000000	0.038878	0.118252	0.000000	0.124479	-3.914448	0.000000	0.000000	0.000000	0.000000	0.000000	1
103.956923	15.642117	0.000000	0.004096	0.095229	0.000000	0.095317	-15.794434	0.000000	0.000000	0.000000	0.000000	0.000000	1
107.065915	15.642117	0.000000	-0.028157	0.014584	0.000000	0.031709	-16.568937	0.000000	0.000000	0.000000	0.000000	0.000000	1
110.174908	15.642117	0.000000	-0.020028	-0.003072	0.000000	0.020262	-9.661666	0.000000	0.000000	0.000000	0.000000	0.000000	1
113.283900	15.642117	0.000000	-0.005095	-0.007770	0.000000	0.009292	-4.430431	0.000000	0.000000	0.000000	0.000000	0.000000	1
116.392892	15.642117	0.000000	0.004056	0.006633	0.000000	0.007775	0.045283	0.000000	0.000000	0.000000	0.000000	0.000000	1
119.501884	15.642117	0.000000	0.001395	0.018082	0.000000	0.018135	1.327872	0.000000	0.000000	0.000000	0.000000	0.000000	1