TITLE = "PIV Result  2837 "
VARIABLES = "X (mm)""Y (mm)""Z (mm)""U (m/s)""V (m/s)""W (m/s)""Speed (m/s)""Vorticity""U-std""V-std""W-std""Speed-std""Vorticity-std""Flag"
ZONE T="ZONE 2837 "
I= 51 , J= 16 , K= 1 , F=POINT
DT=(DOUBLE DOUBLE DOUBLE DOUBLE DOUBLE DOUBLE DOUBLE DOUBLE DOUBLE DOUBLE DOUBLE DOUBLE DOUBLE DOUBLE)
4.469176	3.206148	0.000000	-0.000068	0.006694	0.000000	0.006694	0.817854	0.000000	0.000000	0.000000	0.000000	0.000000	1
7.578168	3.206148	0.000000	0.003300	0.008780	0.000000	0.009380	0.229152	0.000000	0.000000	0.000000	0.000000	0.000000	1
10.687160	3.206148	0.000000	0.002804	0.006678	0.000000	0.007243	0.200944	0.000000	0.000000	0.000000	0.000000	0.000000	1
13.796152	3.206148	0.000000	0.003016	0.006248	0.000000	0.006938	-0.129410	0.000000	0.000000	0.000000	0.000000	0.000000	1
16.905145	3.206148	0.000000	0.001151	0.004672	0.000000	0.004812	-1.347948	0.000000	0.000000	0.000000	0.000000	0.000000	1
20.014137	3.206148	0.000000	0.000310	0.006809	0.000000	0.006816	-0.221192	0.000000	0.000000	0.000000	0.000000	0.000000	1
23.123129	3.206148	0.000000	0.001287	0.014813	0.000000	0.014869	1.975856	0.000000	0.000000	0.000000	0.000000	0.000000	1
26.232121	3.206148	0.000000	0.002717	0.017632	0.000000	0.017840	0.837372	0.000000	0.000000	0.000000	0.000000	0.000000	1
29.341113	3.206148	0.000000	0.002388	0.017530	0.000000	0.017692	-3.129865	0.000000	0.000000	0.000000	0.000000	0.000000	1
32.450105	3.206148	0.000000	-0.000701	0.006781	0.000000	0.006817	-4.302731	0.000000	0.000000	0.000000	0.000000	0.000000	1
35.559097	3.206148	0.000000	-0.007021	0.003725	0.000000	0.007948	-3.035758	0.000000	0.000000	0.000000	0.000000	0.000000	1
38.668089	3.206148	0.000000	-0.004168	0.002744	0.000000	0.004991	-1.660270	0.000000	0.000000	0.000000	0.000000	0.000000	1
41.777081	3.206148	0.000000	0.002190	0.001072	0.000000	0.002438	-0.407141	0.000000	0.000000	0.000000	0.000000	0.000000	1
44.886073	3.206148	0.000000	-0.000188	0.000515	0.000000	0.000548	-1.394757	0.000000	0.000000	0.000000	0.000000	0.000000	1
47.995066	3.206148	0.000000	-0.000013	0.000942	0.000000	0.000942	-2.639816	0.000000	0.000000	0.000000	0.000000	0.000000	1
51.104058	3.206148	0.000000	0.001428	0.001115	0.000000	0.001812	-3.741799	0.000000	0.000000	0.000000	0.000000	0.000000	1
54.213050	3.206148	0.000000	0.004287	0.000055	0.000000	0.004287	-3.146020	0.000000	0.000000	0.000000	0.000000	0.000000	1
57.322042	3.206148	0.000000	0.005781	-0.002530	0.000000	0.006311	10.788338	0.000000	0.000000	0.000000	0.000000	0.000000	1
60.431034	3.206148	0.000000	-0.004250	-0.007751	0.000000	0.008840	79.827494	0.000000	0.000000	0.000000	0.000000	0.000000	1
63.540026	3.206148	0.000000	-0.117229	0.002214	0.000000	0.117250	187.129392	0.000000	0.000000	0.000000	0.000000	0.000000	1
66.649018	3.206148	0.000000	-0.492539	0.426738	0.000000	0.651690	204.547136	0.000000	0.000000	0.000000	0.000000	0.000000	2
69.758010	3.206148	0.000000	-0.667769	0.812714	0.000000	1.051864	133.229054	0.000000	0.000000	0.000000	0.000000	0.000000	2
72.867002	3.206148	0.000000	-0.629641	0.967220	0.000000	1.154107	-55.024128	0.000000	0.000000	0.000000	0.000000	0.000000	1
75.975994	3.206148	0.000000	-0.372246	0.329002	0.000000	0.496799	-137.338590	0.000000	0.000000	0.000000	0.000000	0.000000	1
79.084987	3.206148	0.000000	-0.380182	0.177790	0.000000	0.419700	-72.301062	0.000000	0.000000	0.000000	0.000000	0.000000	1
82.193979	3.206148	0.000000	-0.050000	0.063420	0.000000	0.080760	-50.220761	0.000000	0.000000	0.000000	0.000000	0.000000	2
85.302971	3.206148	0.000000	-0.060435	-0.024626	0.000000	0.065260	-17.724429	0.000000	0.000000	0.000000	0.000000	0.000000	2
88.411963	3.206148	0.000000	-0.044511	-0.032436	0.000000	0.055076	-3.095331	0.000000	0.000000	0.000000	0.000000	0.000000	1
91.520955	3.206148	0.000000	-0.026648	-0.001276	0.000000	0.026679	-0.558385	0.000000	0.000000	0.000000	0.000000	0.000000	1
94.629947	3.206148	0.000000	-0.024070	-0.003245	0.000000	0.024288	-6.723500	0.000000	0.000000	0.000000	0.000000	0.000000	1
97.738939	3.206148	0.000000	0.007671	-0.002999	0.000000	0.008237	-6.657735	0.000000	0.000000	0.000000	0.000000	0.000000	1
100.847931	3.206148	0.000000	0.002639	-0.002244	0.000000	0.003464	-0.252805	0.000000	0.000000	0.000000	0.000000	0.000000	1
103.956923	3.206148	0.000000	-0.003544	-0.002330	0.000000	0.004241	3.566960	0.000000	0.000000	0.000000	0.000000	0.000000	1
107.065915	3.206148	0.000000	0.001512	0.000129	0.000000	0.001517	1.130173	0.000000	0.000000	0.000000	0.000000	0.000000	1
110.174908	3.206148	0.000000	0.001673	-0.001365	0.000000	0.002159	-0.261847	0.000000	0.000000	0.000000	0.000000	0.000000	1
113.283900	3.206148	0.000000	0.001223	-0.001578	0.000000	0.001997	0.389837	0.000000	0.000000	0.000000	0.000000	0.000000	1
116.392892	3.206148	0.000000	-0.000228	0.000903	0.000000	0.000931	1.134692	0.000000	0.000000	0.000000	0.000000	0.000000	1
119.501884	3.206148	0.000000	-0.001863	0.000787	0.000000	0.002022	1.889543	0.000000	0.000000	0.000000	0.000000	0.000000	1
122.610876	3.206148	0.000000	-0.000505	0.001526	0.000000	0.001607	1.515364	0.000000	0.000000	0.000000	0.000000	0.000000	1
125.719868	3.206148	0.000000	0.000297	0.000939	0.000000	0.000985	2.027045	0.000000	0.000000	0.000000	0.000000	0.000000	1
128.828860	3.206148	0.000000	-0.003308	0.000375	0.000000	0.003329	3.390523	0.000000	0.000000	0.000000	0.000000	0.000000	1
131.937852	3.206148	0.000000	-0.001673	0.000682	0.000000	0.001807	3.342864	0.000000	0.000000	0.000000	0.000000	0.000000	1
135.046844	3.206148	0.000000	-0.003771	0.003017	0.000000	0.004829	2.552939	0.000000	0.000000	0.000000	0.000000	0.000000	1
138.155836	3.206148	0.000000	-0.005049	0.005765	0.000000	0.007663	0.556879	0.000000	0.000000	0.000000	0.000000	0.000000	1
141.264829	3.206148	0.000000	-0.004609	0.004804	0.000000	0.006657	-0.568419	0.000000	0.000000	0.000000	0.000000	0.000000	1
144.373821	3.206148	0.000000	-0.002567	0.002236	0.000000	0.003404	0.983782	0.000000	0.000000	0.000000	0.000000	0.000000	1
147.482813	3.206148	0.000000	-0.006407	0.006492	0.000000	0.009121	1.996363	0.000000	0.000000	0.000000	0.000000	0.000000	1
150.591805	3.206148	0.000000	-0.006749	0.007631	0.000000	0.010187	1.301144	0.000000	0.000000	0.000000	0.000000	0.000000	1
153.700797	3.206148	0.000000	-0.008618	0.009262	0.000000	0.012651	-0.148444	0.000000	0.000000	0.000000	0.000000	0.000000	1
156.809789	3.206148	0.000000	-0.007057	0.005611	0.000000	0.009016	-1.042166	0.000000	0.000000	0.000000	0.000000	0.000000	1
159.918781	3.206148	0.000000	-0.004065	0.004142	0.000000	0.005804	-0.909874	0.000000	0.000000	0.000000	0.000000	0.000000	1
4.469176	6.315140	0.000000	0.004028	0.004445	0.000000	0.005999	2.229599	0.000000	0.000000	0.000000	0.000000	0.000000	1
7.578168	6.315140	0.000000	0.004818	0.013059	0.000000	0.013920	1.245844	0.000000	0.000000	0.000000	0.000000	0.000000	1
10.687160	6.315140	0.000000	-0.001043	0.010596	0.000000	0.010648	0.346167	0.000000	0.000000	0.000000	0.000000	0.000000	1
13.796152	6.315140	0.000000	0.000772	0.009670	0.000000	0.009700	-0.361359	0.000000	0.000000	0.000000	0.000000	0.000000	1
16.905145	6.315140	0.000000	0.007504	0.009010	0.000000	0.011726	-1.805454	0.000000	0.000000	0.000000	0.000000	0.000000	1
20.014137	6.315140	0.000000	0.000914	0.003411	0.000000	0.003532	-0.922993	0.000000	0.000000	0.000000	0.000000	0.000000	1
23.123129	6.315140	0.000000	0.002039	0.004432	0.000000	0.004878	1.896698	0.000000	0.000000	0.000000	0.000000	0.000000	1
26.232121	6.315140	0.000000	0.006201	0.022752	0.000000	0.023582	1.284699	0.000000	0.000000	0.000000	0.000000	0.000000	1
29.341113	6.315140	0.000000	0.006375	0.023835	0.000000	0.024673	-2.627997	0.000000	0.000000	0.000000	0.000000	0.000000	1
32.450105	6.315140	0.000000	0.002311	0.009151	0.000000	0.009438	-4.351400	0.000000	0.000000	0.000000	0.000000	0.000000	1
35.559097	6.315140	0.000000	0.000541	0.001706	0.000000	0.001790	-3.532039	0.000000	0.000000	0.000000	0.000000	0.000000	1
38.668089	6.315140	0.000000	-0.000230	-0.002489	0.000000	0.002500	-1.703539	0.000000	0.000000	0.000000	0.000000	0.000000	1
41.777081	6.315140	0.000000	0.001147	-0.001892	0.000000	0.002212	-0.692245	0.000000	0.000000	0.000000	0.000000	0.000000	1
44.886073	6.315140	0.000000	0.000130	-0.003155	0.000000	0.003157	-1.916834	0.000000	0.000000	0.000000	0.000000	0.000000	1
47.995066	6.315140	0.000000	0.009131	-0.010372	0.000000	0.013818	-2.853353	0.000000	0.000000	0.000000	0.000000	0.000000	2
51.104058	6.315140	0.000000	0.009767	-0.009639	0.000000	0.013722	1.938261	0.000000	0.000000	0.000000	0.000000	0.000000	2
54.213050	6.315140	0.000000	0.015883	-0.018599	0.000000	0.024458	18.428970	0.000000	0.000000	0.000000	0.000000	0.000000	1
57.322042	6.315140	0.000000	0.011392	-0.007975	0.000000	0.013906	28.171323	0.000000	0.000000	0.000000	0.000000	0.000000	1
60.431034	6.315140	0.000000	-0.052376	0.098062	0.000000	0.111173	67.661171	0.000000	0.000000	0.000000	0.000000	0.000000	2
63.540026	6.315140	0.000000	-0.481588	0.525014	0.000000	0.712437	126.512540	0.000000	0.000000	0.000000	0.000000	0.000000	2
66.649018	6.315140	0.000000	-0.900951	0.805457	0.000000	1.208501	112.564839	0.000000	0.000000	0.000000	0.000000	0.000000	1
69.758010	6.315140	0.000000	-0.924879	0.819970	0.000000	1.236022	52.502857	0.000000	0.000000	0.000000	0.000000	0.000000	1
72.867002	6.315140	0.000000	-0.705897	0.922924	0.000000	1.161929	-87.247873	0.000000	0.000000	0.000000	0.000000	0.000000	1
75.975994	6.315140	0.000000	-0.345418	0.236609	0.000000	0.418685	-139.164234	0.000000	0.000000	0.000000	0.000000	0.000000	1
79.084987	6.315140	0.000000	-0.189669	0.172327	0.000000	0.256263	-71.331671	0.000000	0.000000	0.000000	0.000000	0.000000	2
82.193979	6.315140	0.000000	-0.030054	0.030857	0.000000	0.043074	-41.663629	0.000000	0.000000	0.000000	0.000000	0.000000	1
85.302971	6.315140	0.000000	-0.039565	0.001474	0.000000	0.039593	-16.696792	0.000000	0.000000	0.000000	0.000000	0.000000	2
88.411963	6.315140	0.000000	-0.029306	-0.016816	0.000000	0.033788	-6.033454	0.000000	0.000000	0.000000	0.000000	0.000000	1
91.520955	6.315140	0.000000	-0.013647	0.003912	0.000000	0.014196	-1.543339	0.000000	0.000000	0.000000	0.000000	0.000000	1
94.629947	6.315140	0.000000	-0.006540	0.005787	0.000000	0.008732	-5.865360	0.000000	0.000000	0.000000	0.000000	0.000000	1
97.738939	6.315140	0.000000	0.019094	-0.018495	0.000000	0.026583	-5.612341	0.000000	0.000000	0.000000	0.000000	0.000000	1
100.847931	6.315140	0.000000	0.016940	-0.023334	0.000000	0.028835	1.252441	0.000000	0.000000	0.000000	0.000000	0.000000	1
103.956923	6.315140	0.000000	-0.009958	0.011302	0.000000	0.015063	4.263752	0.000000	0.000000	0.000000	0.000000	0.000000	1
107.065915	6.315140	0.000000	-0.004331	0.014281	0.000000	0.014924	0.067161	0.000000	0.000000	0.000000	0.000000	0.000000	1
110.174908	6.315140	0.000000	0.002504	0.007123	0.000000	0.007550	-1.339198	0.000000	0.000000	0.000000	0.000000	0.000000	1
113.283900	6.315140	0.000000	-0.000708	0.006621	0.000000	0.006658	-0.252392	0.000000	0.000000	0.000000	0.000000	0.000000	1
116.392892	6.315140	0.000000	-0.005011	0.001890	0.000000	0.005356	0.091259	0.000000	0.000000	0.000000	0.000000	0.000000	1
119.501884	6.315140	0.000000	-0.006147	0.002585	0.000000	0.006668	2.379705	0.000000	0.000000	0.000000	0.000000	0.000000	1
122.610876	6.315140	0.000000	-0.006680	0.005239	0.000000	0.008489	3.450854	0.000000	0.000000	0.000000	0.000000	0.000000	1
125.719868	6.315140	0.000000	-0.002318	0.002029	0.000000	0.003081	2.949277	0.000000	0.000000	0.000000	0.000000	0.000000	1
128.828860	6.315140	0.000000	-0.013731	0.009769	0.000000	0.016852	2.955745	0.000000	0.000000	0.000000	0.000000	0.000000	1
131.937852	6.315140	0.000000	-0.014067	0.008594	0.000000	0.016485	2.670615	0.000000	0.000000	0.000000	0.000000	0.000000	1
135.046844	6.315140	0.000000	-0.008403	0.008855	0.000000	0.012208	1.873623	0.000000	0.000000	0.000000	0.000000	0.000000	1
138.155836	6.315140	0.000000	-0.008864	0.009786	0.000000	0.013204	-0.420291	0.000000	0.000000	0.000000	0.000000	0.000000	1
141.264829	6.315140	0.000000	-0.003914	0.002426	0.000000	0.004605	-1.065605	0.000000	0.000000	0.000000	0.000000	0.000000	1
144.373821	6.315140	0.000000	-0.003983	0.002405	0.000000	0.004653	1.136887	0.000000	0.000000	0.000000	0.000000	0.000000	1
147.482813	6.315140	0.000000	-0.007989	0.009254	0.000000	0.012225	1.979617	0.000000	0.000000	0.000000	0.000000	0.000000	1
150.591805	6.315140	0.000000	-0.011102	0.012904	0.000000	0.017023	1.070527	0.000000	0.000000	0.000000	0.000000	0.000000	1
153.700797	6.315140	0.000000	-0.009310	0.011685	0.000000	0.014940	-0.377148	0.000000	0.000000	0.000000	0.000000	0.000000	1
156.809789	6.315140	0.000000	-0.006569	0.007829	0.000000	0.010220	-0.892373	0.000000	0.000000	0.000000	0.000000	0.000000	1
159.918781	6.315140	0.000000	-0.003792	0.004403	0.000000	0.005811	-0.536317	0.000000	0.000000	0.000000	0.000000	0.000000	1
4.469176	9.424132	0.000000	0.001975	0.003459	0.000000	0.003983	2.732085	0.000000	0.000000	0.000000	0.000000	0.000000	1
7.578168	9.424132	0.000000	0.003406	0.014021	0.000000	0.014429	1.777387	0.000000	0.000000	0.000000	0.000000	0.000000	1
10.687160	9.424132	0.000000	-0.005382	0.016229	0.000000	0.017098	0.127786	0.000000	0.000000	0.000000	0.000000	0.000000	1
13.796152	9.424132	0.000000	0.001158	0.013819	0.000000	0.013867	-0.392187	0.000000	0.000000	0.000000	0.000000	0.000000	1
16.905145	9.424132	0.000000	0.013361	0.012727	0.000000	0.018452	-1.097569	0.000000	0.000000	0.000000	0.000000	0.000000	1
20.014137	9.424132	0.000000	0.001926	0.005046	0.000000	0.005401	-1.075770	0.000000	0.000000	0.000000	0.000000	0.000000	1
23.123129	9.424132	0.000000	0.001556	0.004496	0.000000	0.004757	1.460408	0.000000	0.000000	0.000000	0.000000	0.000000	1
26.232121	9.424132	0.000000	0.009691	0.011843	0.000000	0.015303	2.367979	0.000000	0.000000	0.000000	0.000000	0.000000	1
29.341113	9.424132	0.000000	0.010611	0.017365	0.000000	0.020351	-0.176732	0.000000	0.000000	0.000000	0.000000	0.000000	1
32.450105	9.424132	0.000000	0.009713	0.018368	0.000000	0.020778	-3.045038	0.000000	0.000000	0.000000	0.000000	0.000000	1
35.559097	9.424132	0.000000	0.005735	0.009008	0.000000	0.010679	-3.125340	0.000000	0.000000	0.000000	0.000000	0.000000	1
38.668089	9.424132	0.000000	0.001045	-0.001023	0.000000	0.001463	-0.703289	0.000000	0.000000	0.000000	0.000000	0.000000	1
41.777081	9.424132	0.000000	0.001068	-0.001452	0.000000	0.001802	-0.594790	0.000000	0.000000	0.000000	0.000000	0.000000	1
44.886073	9.424132	0.000000	0.004616	-0.006909	0.000000	0.008309	-2.357441	0.000000	0.000000	0.000000	0.000000	0.000000	1
47.995066	9.424132	0.000000	0.009854	-0.013687	0.000000	0.016865	3.724325	0.000000	0.000000	0.000000	0.000000	0.000000	2
51.104058	9.424132	0.000000	0.021350	-0.021051	0.000000	0.029983	29.385602	0.000000	0.000000	0.000000	0.000000	0.000000	1
54.213050	9.424132	0.000000	-0.057872	0.039415	0.000000	0.070020	63.896934	0.000000	0.000000	0.000000	0.000000	0.000000	1
57.322042	9.424132	0.000000	-0.032952	0.294502	0.000000	0.296340	67.227937	0.000000	0.000000	0.000000	0.000000	0.000000	2
60.431034	9.424132	0.000000	-0.036352	0.342848	0.000000	0.344770	66.524250	0.000000	0.000000	0.000000	0.000000	0.000000	2
63.540026	9.424132	0.000000	-0.409828	0.511112	0.000000	0.655129	56.891821	0.000000	0.000000	0.000000	0.000000	0.000000	2
66.649018	9.424132	0.000000	-0.926169	0.589259	0.000000	1.097732	1.700121	0.000000	0.000000	0.000000	0.000000	0.000000	2
69.758010	9.424132	0.000000	-0.774286	0.644038	0.000000	1.007127	-44.443836	0.000000	0.000000	0.000000	0.000000	0.000000	1
72.867002	9.424132	0.000000	-0.545203	0.557467	0.000000	0.779754	-112.164833	0.000000	0.000000	0.000000	0.000000	0.000000	1
75.975994	9.424132	0.000000	-0.221767	0.337280	0.000000	0.403657	-127.107895	0.000000	0.000000	0.000000	0.000000	0.000000	1
79.084987	9.424132	0.000000	-0.084577	0.067800	0.000000	0.108398	-60.694341	0.000000	0.000000	0.000000	0.000000	0.000000	2
82.193979	9.424132	0.000000	-0.002192	0.029702	0.000000	0.029783	-21.718242	0.000000	0.000000	0.000000	0.000000	0.000000	1
85.302971	9.424132	0.000000	-0.005982	0.021339	0.000000	0.022162	-7.348455	0.000000	0.000000	0.000000	0.000000	0.000000	1
88.411963	9.424132	0.000000	-0.006949	-0.000101	0.000000	0.006950	-3.828165	0.000000	0.000000	0.000000	0.000000	0.000000	1
91.520955	9.424132	0.000000	-0.004438	-0.005163	0.000000	0.006808	-2.714388	0.000000	0.000000	0.000000	0.000000	0.000000	1
94.629947	9.424132	0.000000	0.000435	-0.006396	0.000000	0.006411	-5.253011	0.000000	0.000000	0.000000	0.000000	0.000000	1
97.738939	9.424132	0.000000	0.027553	-0.013409	0.000000	0.030643	-2.428684	0.000000	0.000000	0.000000	0.000000	0.000000	1
100.847931	9.424132	0.000000	0.026300	-0.000817	0.000000	0.026313	3.224389	0.000000	0.000000	0.000000	0.000000	0.000000	2
103.956923	9.424132	0.000000	-0.005647	0.022578	0.000000	0.023274	1.509921	0.000000	0.000000	0.000000	0.000000	0.000000	1
107.065915	9.424132	0.000000	-0.007743	0.037826	0.000000	0.038611	-6.678281	0.000000	0.000000	0.000000	0.000000	0.000000	1
110.174908	9.424132	0.000000	-0.000236	0.009121	0.000000	0.009124	-4.632175	0.000000	0.000000	0.000000	0.000000	0.000000	1
113.283900	9.424132	0.000000	-0.001591	0.005661	0.000000	0.005880	3.699288	0.000000	0.000000	0.000000	0.000000	0.000000	1
116.392892	9.424132	0.000000	-0.003166	0.000567	0.000000	0.003217	3.596967	0.000000	0.000000	0.000000	0.000000	0.000000	1
119.501884	9.424132	0.000000	-0.004542	0.002266	0.000000	0.005076	4.305054	0.000000	0.000000	0.000000	0.000000	0.000000	1
122.610876	9.424132	0.000000	-0.020301	0.024342	0.000000	0.031696	4.259014	0.000000	0.000000	0.000000	0.000000	0.000000	1
125.719868	9.424132	0.000000	-0.021161	0.025328	0.000000	0.033004	0.100196	0.000000	0.000000	0.000000	0.000000	0.000000	1
128.828860	9.424132	0.000000	-0.018046	0.012337	0.000000	0.021860	-0.906176	0.000000	0.000000	0.000000	0.000000	0.000000	1
131.937852	9.424132	0.000000	-0.023753	0.012955	0.000000	0.027056	-0.246982	0.000000	0.000000	0.000000	0.000000	0.000000	1
135.046844	9.424132	0.000000	-0.009306	0.013513	0.000000	0.016407	-0.368806	0.000000	0.000000	0.000000	0.000000	0.000000	1
138.155836	9.424132	0.000000	-0.009803	0.014185	0.000000	0.017243	-1.464735	0.000000	0.000000	0.000000	0.000000	0.000000	1
141.264829	9.424132	0.000000	-0.002549	0.001147	0.000000	0.002795	-1.107771	0.000000	0.000000	0.000000	0.000000	0.000000	1
144.373821	9.424132	0.000000	-0.005167	0.002737	0.000000	0.005847	1.023855	0.000000	0.000000	0.000000	0.000000	0.000000	1
147.482813	9.424132	0.000000	-0.009272	0.008074	0.000000	0.012295	1.047483	0.000000	0.000000	0.000000	0.000000	0.000000	1
150.591805	9.424132	0.000000	-0.011770	0.012230	0.000000	0.016974	-0.063747	0.000000	0.000000	0.000000	0.000000	0.000000	1
153.700797	9.424132	0.000000	-0.009835	0.012946	0.000000	0.016258	-0.622036	0.000000	0.000000	0.000000	0.000000	0.000000	1
156.809789	9.424132	0.000000	-0.003808	0.010815	0.000000	0.011465	-0.422427	0.000000	0.000000	0.000000	0.000000	0.000000	1
159.918781	9.424132	0.000000	-0.011858	0.007923	0.000000	0.014261	-0.057392	0.000000	0.000000	0.000000	0.000000	0.000000	1
4.469176	12.533124	0.000000	0.002063	0.003733	0.000000	0.004265	0.437713	0.000000	0.000000	0.000000	0.000000	0.000000	1
7.578168	12.533124	0.000000	0.001035	0.002222	0.000000	0.002451	0.765422	0.000000	0.000000	0.000000	0.000000	0.000000	1
10.687160	12.533124	0.000000	-0.000076	0.007685	0.000000	0.007685	0.355244	0.000000	0.000000	0.000000	0.000000	0.000000	1
13.796152	12.533124	0.000000	0.001433	0.008007	0.000000	0.008134	0.346553	0.000000	0.000000	0.000000	0.000000	0.000000	1
16.905145	12.533124	0.000000	0.007980	0.009286	0.000000	0.012244	0.662022	0.000000	0.000000	0.000000	0.000000	0.000000	1
20.014137	12.533124	0.000000	0.003150	0.008361	0.000000	0.008935	0.260449	0.000000	0.000000	0.000000	0.000000	0.000000	1
23.123129	12.533124	0.000000	0.003799	0.010277	0.000000	0.010957	0.642904	0.000000	0.000000	0.000000	0.000000	0.000000	1
26.232121	12.533124	0.000000	0.000964	0.012268	0.000000	0.012306	1.942395	0.000000	0.000000	0.000000	0.000000	0.000000	1
29.341113	12.533124	0.000000	0.010268	0.019210	0.000000	0.021782	2.174026	0.000000	0.000000	0.000000	0.000000	0.000000	1
32.450105	12.533124	0.000000	0.010095	0.018755	0.000000	0.021299	-0.803722	0.000000	0.000000	0.000000	0.000000	0.000000	1
35.559097	12.533124	0.000000	0.002178	0.003414	0.000000	0.004050	-2.062806	0.000000	0.000000	0.000000	0.000000	0.000000	1
38.668089	12.533124	0.000000	-0.004633	-0.001901	0.000000	0.005008	-0.216543	0.000000	0.000000	0.000000	0.000000	0.000000	1
41.777081	12.533124	0.000000	-0.005419	-0.003296	0.000000	0.006343	0.883156	0.000000	0.000000	0.000000	0.000000	0.000000	1
44.886073	12.533124	0.000000	0.012061	-0.009862	0.000000	0.015580	6.241335	0.000000	0.000000	0.000000	0.000000	0.000000	2
47.995066	12.533124	0.000000	0.010663	-0.010153	0.000000	0.014723	31.523176	0.000000	0.000000	0.000000	0.000000	0.000000	2
51.104058	12.533124	0.000000	-0.060037	0.062727	0.000000	0.086829	71.930630	0.000000	0.000000	0.000000	0.000000	0.000000	1
54.213050	12.533124	0.000000	-0.197646	0.271142	0.000000	0.335533	86.893080	0.000000	0.000000	0.000000	0.000000	0.000000	2
57.322042	12.533124	0.000000	-0.209652	0.301294	0.000000	0.367059	90.112128	0.000000	0.000000	0.000000	0.000000	0.000000	2
60.431034	12.533124	0.000000	-0.218611	0.397857	0.000000	0.453961	93.820842	0.000000	0.000000	0.000000	0.000000	0.000000	2
63.540026	12.533124	0.000000	-0.508152	0.409599	0.000000	0.652679	53.876114	0.000000	0.000000	0.000000	0.000000	0.000000	2
66.649018	12.533124	0.000000	-0.695519	0.598724	0.000000	0.917723	-41.900307	0.000000	0.000000	0.000000	0.000000	0.000000	1
69.758010	12.533124	0.000000	-0.702854	0.497403	0.000000	0.861053	-105.475680	0.000000	0.000000	0.000000	0.000000	0.000000	1
72.867002	12.533124	0.000000	-0.319812	0.475001	0.000000	0.572630	-116.332981	0.000000	0.000000	0.000000	0.000000	0.000000	2
75.975994	12.533124	0.000000	-0.111129	0.133001	0.000000	0.173317	-88.575902	0.000000	0.000000	0.000000	0.000000	0.000000	2
79.084987	12.533124	0.000000	-0.031414	0.056422	0.000000	0.064578	-31.977942	0.000000	0.000000	0.000000	0.000000	0.000000	1
82.193979	12.533124	0.000000	0.004071	0.029242	0.000000	0.029524	-3.182736	0.000000	0.000000	0.000000	0.000000	0.000000	1
85.302971	12.533124	0.000000	-0.020722	0.025369	0.000000	0.032756	5.282017	0.000000	0.000000	0.000000	0.000000	0.000000	1
88.411963	12.533124	0.000000	-0.033845	0.021024	0.000000	0.039843	4.623548	0.000000	0.000000	0.000000	0.000000	0.000000	1
91.520955	12.533124	0.000000	-0.003779	0.000354	0.000000	0.003796	0.163735	0.000000	0.000000	0.000000	0.000000	0.000000	1
94.629947	12.533124	0.000000	0.031822	-0.002943	0.000000	0.031958	-2.092965	0.000000	0.000000	0.000000	0.000000	0.000000	1
97.738939	12.533124	0.000000	0.025655	0.001752	0.000000	0.025715	1.244153	0.000000	0.000000	0.000000	0.000000	0.000000	1
100.847931	12.533124	0.000000	0.020049	0.009206	0.000000	0.022062	4.999942	0.000000	0.000000	0.000000	0.000000	0.000000	1
103.956923	12.533124	0.000000	0.029346	0.032261	0.000000	0.043612	4.208775	0.000000	0.000000	0.000000	0.000000	0.000000	1
107.065915	12.533124	0.000000	0.033315	0.051222	0.000000	0.061103	-4.306087	0.000000	0.000000	0.000000	0.000000	0.000000	1
110.174908	12.533124	0.000000	0.008754	0.018098	0.000000	0.020105	-4.114006	0.000000	0.000000	0.000000	0.000000	0.000000	1
113.283900	12.533124	0.000000	-0.038549	0.020308	0.000000	0.043571	4.291890	0.000000	0.000000	0.000000	0.000000	0.000000	1
116.392892	12.533124	0.000000	-0.044932	0.023096	0.000000	0.050520	2.495959	0.000000	0.000000	0.000000	0.000000	0.000000	1
119.501884	12.533124	0.000000	-0.003926	0.005135	0.000000	0.006464	2.310987	0.000000	0.000000	0.000000	0.000000	0.000000	1
122.610876	12.533124	0.000000	-0.022834	0.027639	0.000000	0.035851	0.920693	0.000000	0.000000	0.000000	0.000000	0.000000	1
125.719868	12.533124	0.000000	-0.017380	0.020348	0.000000	0.026760	-4.461679	0.000000	0.000000	0.000000	0.000000	0.000000	1
128.828860	12.533124	0.000000	-0.009232	0.007833	0.000000	0.012107	-3.736580	0.000000	0.000000	0.000000	0.000000	0.000000	1
131.937852	12.533124	0.000000	-0.016529	0.007464	0.000000	0.018137	-2.518852	0.000000	0.000000	0.000000	0.000000	0.000000	1
135.046844	12.533124	0.000000	-0.004922	0.003307	0.000000	0.005930	-1.128955	0.000000	0.000000	0.000000	0.000000	0.000000	1
138.155836	12.533124	0.000000	-0.004177	0.003826	0.000000	0.005664	0.582434	0.000000	0.000000	0.000000	0.000000	0.000000	1
141.264829	12.533124	0.000000	-0.004061	0.010744	0.000000	0.011486	0.381323	0.000000	0.000000	0.000000	0.000000	0.000000	1
144.373821	12.533124	0.000000	-0.011391	0.003533	0.000000	0.011927	-0.250483	0.000000	0.000000	0.000000	0.000000	0.000000	1
147.482813	12.533124	0.000000	-0.006279	0.002272	0.000000	0.006677	-0.253110	0.000000	0.000000	0.000000	0.000000	0.000000	1
150.591805	12.533124	0.000000	-0.003250	0.003965	0.000000	0.005127	0.145661	0.000000	0.000000	0.000000	0.000000	0.000000	1
153.700797	12.533124	0.000000	-0.006259	0.008978	0.000000	0.010944	0.194123	0.000000	0.000000	0.000000	0.000000	0.000000	1
156.809789	12.533124	0.000000	-0.006858	0.010064	0.000000	0.012178	-0.125450	0.000000	0.000000	0.000000	0.000000	0.000000	1
159.918781	12.533124	0.000000	-0.010285	0.011778	0.000000	0.015637	-0.276017	0.000000	0.000000	0.000000	0.000000	0.000000	1
4.469176	15.642117	0.000000	0.004265	0.007576	0.000000	0.008694	0.203058	0.000000	0.000000	0.000000	0.000000	0.000000	1
7.578168	15.642117	0.000000	0.002102	0.006464	0.000000	0.006797	1.148283	0.000000	0.000000	0.000000	0.000000	0.000000	1
10.687160	15.642117	0.000000	-0.000758	0.010244	0.000000	0.010272	1.161047	0.000000	0.000000	0.000000	0.000000	0.000000	1
13.796152	15.642117	0.000000	-0.000485	0.010233	0.000000	0.010244	0.263933	0.000000	0.000000	0.000000	0.000000	0.000000	1
16.905145	15.642117	0.000000	0.000711	0.007851	0.000000	0.007883	0.402446	0.000000	0.000000	0.000000	0.000000	0.000000	1
20.014137	15.642117	0.000000	0.000979	0.006873	0.000000	0.006942	0.695256	0.000000	0.000000	0.000000	0.000000	0.000000	1
23.123129	15.642117	0.000000	0.004639	0.009117	0.000000	0.010230	0.673203	0.000000	0.000000	0.000000	0.000000	0.000000	1
26.232121	15.642117	0.000000	0.006261	0.010042	0.000000	0.011835	1.224691	0.000000	0.000000	0.000000	0.000000	0.000000	1
29.341113	15.642117	0.000000	0.002079	0.014385	0.000000	0.014535	1.915496	0.000000	0.000000	0.000000	0.000000	0.000000	1
32.450105	15.642117	0.000000	0.000827	0.015235	0.000000	0.015257	-0.644897	0.000000	0.000000	0.000000	0.000000	0.000000	1
35.559097	15.642117	0.000000	-0.001065	0.001241	0.000000	0.001635	-2.134376	0.000000	0.000000	0.000000	0.000000	0.000000	1
38.668089	15.642117	0.000000	-0.004590	-0.003489	0.000000	0.005766	-0.970669	0.000000	0.000000	0.000000	0.000000	0.000000	1
41.777081	15.642117	0.000000	-0.009586	-0.008990	0.000000	0.013142	0.780138	0.000000	0.000000	0.000000	0.000000	0.000000	1
44.886073	15.642117	0.000000	-0.031486	-0.022759	0.000000	0.038850	14.930463	0.000000	0.000000	0.000000	0.000000	0.000000	1
47.995066	15.642117	0.000000	-0.067349	0.012133	0.000000	0.068433	58.089834	0.000000	0.000000	0.000000	0.000000	0.000000	1
51.104058	15.642117	0.000000	-0.206394	0.211997	0.000000	0.295873	78.489636	0.000000	0.000000	0.000000	0.000000	0.000000	2
54.213050	15.642117	0.000000	-0.373437	0.337243	0.000000	0.503178	61.756263	0.000000	0.000000	0.000000	0.000000	0.000000	1
57.322042	15.642117	0.000000	-0.428865	0.325728	0.000000	0.538539	68.471746	0.000000	0.000000	0.000000	0.000000	0.000000	1
60.431034	15.642117	0.000000	-0.543550	0.407061	0.000000	0.679076	72.283152	0.000000	0.000000	0.000000	0.000000	0.000000	1
63.540026	15.642117	0.000000	-0.589892	0.635646	0.000000	0.867190	13.783272	0.000000	0.000000	0.000000	0.000000	0.000000	1
66.649018	15.642117	0.000000	-0.571079	0.586687	0.000000	0.818738	-85.365389	0.000000	0.000000	0.000000	0.000000	0.000000	1
69.758010	15.642117	0.000000	-0.247995	0.341375	0.000000	0.421946	-118.229086	0.000000	0.000000	0.000000	0.000000	0.000000	2
72.867002	15.642117	0.000000	-0.070028	0.125382	0.000000	0.143612	-72.777191	0.000000	0.000000	0.000000	0.000000	0.000000	2
75.975994	15.642117	0.000000	-0.076978	0.104935	0.000000	0.130142	-28.926103	0.000000	0.000000	0.000000	0.000000	0.000000	2
79.084987	15.642117	0.000000	-0.049779	0.048698	0.000000	0.069637	-7.455348	0.000000	0.000000	0.000000	0.000000	0.000000	1
82.193979	15.642117	0.000000	-0.017742	0.023510	0.000000	0.029454	2.847009	0.000000	0.000000	0.000000	0.000000	0.000000	1
85.302971	15.642117	0.000000	-0.050493	0.037291	0.000000	0.062771	5.589681	0.000000	0.000000	0.000000	0.000000	0.000000	1
88.411963	15.642117	0.000000	-0.055005	0.048497	0.000000	0.073331	3.282355	0.000000	0.000000	0.000000	0.000000	0.000000	1
91.520955	15.642117	0.000000	-0.046897	0.045738	0.000000	0.065508	0.381121	0.000000	0.000000	0.000000	0.000000	0.000000	1
94.629947	15.642117	0.000000	0.027085	0.000475	0.000000	0.027089	1.251694	0.000000	0.000000	0.000000	0.000000	0.000000	1
97.738939	15.642117	0.000000	0.022954	0.005375	0.000000	0.023575	3.925622	0.000000	0.000000	0.000000	0.000000	0.000000	1
100.847931	15.642117	0.000000	0.018227	0.010919	0.000000	0.021247	6.376676	0.000000	0.000000	0.000000	0.000000	0.000000	1
103.956923	15.642117	0.000000	0.017128	0.034757	0.000000	0.038748	10.260534	0.000000	0.000000	0.000000	0.000000	0.000000	1
107.065915	15.642117	0.000000	0.014294	0.052440	0.000000	0.054353	5.391588	0.000000	0.000000	0.000000	0.000000	0.000000	1
110.174908	15.642117	0.000000	0.004531	0.041054	0.000000	0.041304	-1.681234	0.000000	0.000000	0.000000	0.000000	0.000000	1
113.283900	15.642117	0.000000	-0.040557	0.036714	0.000000	0.054706	-4.284863	0.000000	0.000000	0.000000	0.000000	0.000000	1
116.392892	15.642117	0.000000	-0.048703	0.027659	0.000000	0.056009	-6.746795	0.000000	0.000000	0.000000	0.000000	0.000000	1
119.501884	15.642117	0.000000	-0.011554	-0.004517	0.000000	0.012405	-1.988659	0.000000	0.000000	0.000000	0.000000	0.000000	1