TITLE = "PIV Result  2271 "
VARIABLES = "X (mm)""Y (mm)""Z (mm)""U (m/s)""V (m/s)""W (m/s)""Speed (m/s)""Vorticity""U-std""V-std""W-std""Speed-std""Vorticity-std""Flag"
ZONE T="ZONE 2271 "
I= 51 , J= 16 , K= 1 , F=POINT
DT=(DOUBLE DOUBLE DOUBLE DOUBLE DOUBLE DOUBLE DOUBLE DOUBLE DOUBLE DOUBLE DOUBLE DOUBLE DOUBLE DOUBLE)
4.469176	3.206148	0.000000	0.001833	0.005192	0.000000	0.005506	1.926530	0.000000	0.000000	0.000000	0.000000	0.000000	1
7.578168	3.206148	0.000000	0.010718	0.010337	0.000000	0.014891	0.541935	0.000000	0.000000	0.000000	0.000000	0.000000	1
10.687160	3.206148	0.000000	0.005930	0.006539	0.000000	0.008827	0.107882	0.000000	0.000000	0.000000	0.000000	0.000000	1
13.796152	3.206148	0.000000	0.006839	0.007844	0.000000	0.010406	0.786717	0.000000	0.000000	0.000000	0.000000	0.000000	1
16.905145	3.206148	0.000000	0.008557	0.008901	0.000000	0.012347	-0.529020	0.000000	0.000000	0.000000	0.000000	0.000000	1
20.014137	3.206148	0.000000	0.002274	0.005360	0.000000	0.005822	-0.786707	0.000000	0.000000	0.000000	0.000000	0.000000	1
23.123129	3.206148	0.000000	0.002580	0.004719	0.000000	0.005379	0.408737	0.000000	0.000000	0.000000	0.000000	0.000000	1
26.232121	3.206148	0.000000	0.002514	0.004223	0.000000	0.004915	0.401697	0.000000	0.000000	0.000000	0.000000	0.000000	1
29.341113	3.206148	0.000000	0.003075	0.005338	0.000000	0.006161	1.384979	0.000000	0.000000	0.000000	0.000000	0.000000	1
32.450105	3.206148	0.000000	0.003516	0.005631	0.000000	0.006639	-0.358981	0.000000	0.000000	0.000000	0.000000	0.000000	1
35.559097	3.206148	0.000000	0.001825	0.000582	0.000000	0.001916	-3.505217	0.000000	0.000000	0.000000	0.000000	0.000000	1
38.668089	3.206148	0.000000	0.001028	-0.000257	0.000000	0.001060	-2.790050	0.000000	0.000000	0.000000	0.000000	0.000000	1
41.777081	3.206148	0.000000	0.001664	-0.000514	0.000000	0.001741	-1.304527	0.000000	0.000000	0.000000	0.000000	0.000000	1
44.886073	3.206148	0.000000	0.005464	0.000983	0.000000	0.005552	-1.236396	0.000000	0.000000	0.000000	0.000000	0.000000	1
47.995066	3.206148	0.000000	0.002325	0.000969	0.000000	0.002519	-2.688452	0.000000	0.000000	0.000000	0.000000	0.000000	1
51.104058	3.206148	0.000000	0.001030	-0.000569	0.000000	0.001177	-2.762412	0.000000	0.000000	0.000000	0.000000	0.000000	1
54.213050	3.206148	0.000000	0.002032	0.000179	0.000000	0.002040	-2.281101	0.000000	0.000000	0.000000	0.000000	0.000000	1
57.322042	3.206148	0.000000	0.000874	-0.000351	0.000000	0.000942	-3.009813	0.000000	0.000000	0.000000	0.000000	0.000000	1
60.431034	3.206148	0.000000	-0.001405	-0.001740	0.000000	0.002236	-1.011464	0.000000	0.000000	0.000000	0.000000	0.000000	1
63.540026	3.206148	0.000000	-0.002077	0.001245	0.000000	0.002422	-0.291717	0.000000	0.000000	0.000000	0.000000	0.000000	1
66.649018	3.206148	0.000000	-0.010607	0.001182	0.000000	0.010672	-4.764192	0.000000	0.000000	0.000000	0.000000	0.000000	1
69.758010	3.206148	0.000000	-0.008032	-0.001217	0.000000	0.008124	-5.273501	0.000000	0.000000	0.000000	0.000000	0.000000	1
72.867002	3.206148	0.000000	0.016833	-0.019297	0.000000	0.025607	8.194673	0.000000	0.000000	0.000000	0.000000	0.000000	1
75.975994	3.206148	0.000000	0.020292	0.015190	0.000000	0.025348	32.648854	0.000000	0.000000	0.000000	0.000000	0.000000	1
79.084987	3.206148	0.000000	0.024630	0.032565	0.000000	0.040830	121.853391	0.000000	0.000000	0.000000	0.000000	0.000000	1
82.193979	3.206148	0.000000	0.047794	0.720318	0.000000	0.721901	88.317618	0.000000	0.000000	0.000000	0.000000	0.000000	2
85.302971	3.206148	0.000000	0.089837	0.576504	0.000000	0.583462	-87.864301	0.000000	0.000000	0.000000	0.000000	0.000000	1
88.411963	3.206148	0.000000	0.088893	0.099234	0.000000	0.133227	-95.792422	0.000000	0.000000	0.000000	0.000000	0.000000	2
91.520955	3.206148	0.000000	0.080714	0.051061	0.000000	0.095509	-30.309445	0.000000	0.000000	0.000000	0.000000	0.000000	2
94.629947	3.206148	0.000000	0.030964	0.025039	0.000000	0.039821	-19.382037	0.000000	0.000000	0.000000	0.000000	0.000000	2
97.738939	3.206148	0.000000	-0.018710	0.004361	0.000000	0.019211	-12.285918	0.000000	0.000000	0.000000	0.000000	0.000000	1
100.847931	3.206148	0.000000	-0.015968	0.000696	0.000000	0.015983	-4.968180	0.000000	0.000000	0.000000	0.000000	0.000000	1
103.956923	3.206148	0.000000	-0.009808	-0.002543	0.000000	0.010132	-0.527558	0.000000	0.000000	0.000000	0.000000	0.000000	1
107.065915	3.206148	0.000000	0.003841	-0.002818	0.000000	0.004764	-0.434193	0.000000	0.000000	0.000000	0.000000	0.000000	1
110.174908	3.206148	0.000000	-0.004095	-0.000203	0.000000	0.004100	0.351930	0.000000	0.000000	0.000000	0.000000	0.000000	1
113.283900	3.206148	0.000000	-0.002182	0.000685	0.000000	0.002287	2.196574	0.000000	0.000000	0.000000	0.000000	0.000000	1
116.392892	3.206148	0.000000	-0.000631	0.000402	0.000000	0.000748	3.360536	0.000000	0.000000	0.000000	0.000000	0.000000	1
119.501884	3.206148	0.000000	-0.002000	0.000477	0.000000	0.002056	3.057839	0.000000	0.000000	0.000000	0.000000	0.000000	1
122.610876	3.206148	0.000000	-0.000021	0.000099	0.000000	0.000101	2.380081	0.000000	0.000000	0.000000	0.000000	0.000000	1
125.719868	3.206148	0.000000	0.000783	-0.000352	0.000000	0.000859	2.408790	0.000000	0.000000	0.000000	0.000000	0.000000	1
128.828860	3.206148	0.000000	0.004897	-0.000863	0.000000	0.004972	3.012331	0.000000	0.000000	0.000000	0.000000	0.000000	1
131.937852	3.206148	0.000000	0.001617	-0.001496	0.000000	0.002203	3.261097	0.000000	0.000000	0.000000	0.000000	0.000000	1
135.046844	3.206148	0.000000	-0.003771	0.006999	0.000000	0.007951	1.946064	0.000000	0.000000	0.000000	0.000000	0.000000	1
138.155836	3.206148	0.000000	-0.004138	0.007022	0.000000	0.008151	0.565181	0.000000	0.000000	0.000000	0.000000	0.000000	1
141.264829	3.206148	0.000000	-0.006436	0.007535	0.000000	0.009910	-0.603466	0.000000	0.000000	0.000000	0.000000	0.000000	1
144.373821	3.206148	0.000000	-0.000306	0.002368	0.000000	0.002387	-0.611970	0.000000	0.000000	0.000000	0.000000	0.000000	1
147.482813	3.206148	0.000000	-0.002350	0.001961	0.000000	0.003061	0.072913	0.000000	0.000000	0.000000	0.000000	0.000000	1
150.591805	3.206148	0.000000	-0.004375	0.000954	0.000000	0.004478	1.142811	0.000000	0.000000	0.000000	0.000000	0.000000	1
153.700797	3.206148	0.000000	-0.001907	0.003972	0.000000	0.004406	1.841819	0.000000	0.000000	0.000000	0.000000	0.000000	1
156.809789	3.206148	0.000000	-0.000959	0.002636	0.000000	0.002805	0.308223	0.000000	0.000000	0.000000	0.000000	0.000000	1
159.918781	3.206148	0.000000	-0.000682	0.001370	0.000000	0.001531	-0.529968	0.000000	0.000000	0.000000	0.000000	0.000000	1
4.469176	6.315140	0.000000	0.001897	0.005866	0.000000	0.006166	1.807042	0.000000	0.000000	0.000000	0.000000	0.000000	1
7.578168	6.315140	0.000000	0.007975	0.010022	0.000000	0.012808	0.754125	0.000000	0.000000	0.000000	0.000000	0.000000	1
10.687160	6.315140	0.000000	0.005186	0.005095	0.000000	0.007270	0.549146	0.000000	0.000000	0.000000	0.000000	0.000000	1
13.796152	6.315140	0.000000	0.006990	0.009780	0.000000	0.012021	0.959651	0.000000	0.000000	0.000000	0.000000	0.000000	1
16.905145	6.315140	0.000000	0.007550	0.011068	0.000000	0.013398	-0.701934	0.000000	0.000000	0.000000	0.000000	0.000000	1
20.014137	6.315140	0.000000	0.002369	0.003917	0.000000	0.004578	-0.984192	0.000000	0.000000	0.000000	0.000000	0.000000	1
23.123129	6.315140	0.000000	0.002206	0.004276	0.000000	0.004811	0.654887	0.000000	0.000000	0.000000	0.000000	0.000000	1
26.232121	6.315140	0.000000	0.003660	0.010630	0.000000	0.011242	0.862282	0.000000	0.000000	0.000000	0.000000	0.000000	1
29.341113	6.315140	0.000000	0.005126	0.012623	0.000000	0.013624	2.186656	0.000000	0.000000	0.000000	0.000000	0.000000	1
32.450105	6.315140	0.000000	0.003510	0.031687	0.000000	0.031881	0.938272	0.000000	0.000000	0.000000	0.000000	0.000000	1
35.559097	6.315140	0.000000	0.006360	0.019487	0.000000	0.020498	-3.153429	0.000000	0.000000	0.000000	0.000000	0.000000	1
38.668089	6.315140	0.000000	0.006091	0.008111	0.000000	0.010143	-3.758037	0.000000	0.000000	0.000000	0.000000	0.000000	1
41.777081	6.315140	0.000000	0.002702	0.001584	0.000000	0.003132	-1.886796	0.000000	0.000000	0.000000	0.000000	0.000000	1
44.886073	6.315140	0.000000	0.006308	-0.001371	0.000000	0.006455	-0.329658	0.000000	0.000000	0.000000	0.000000	0.000000	1
47.995066	6.315140	0.000000	0.012262	-0.002612	0.000000	0.012537	-0.617172	0.000000	0.000000	0.000000	0.000000	0.000000	1
51.104058	6.315140	0.000000	0.012863	-0.000702	0.000000	0.012882	-0.754030	0.000000	0.000000	0.000000	0.000000	0.000000	1
54.213050	6.315140	0.000000	0.006797	0.002190	0.000000	0.007141	-1.239495	0.000000	0.000000	0.000000	0.000000	0.000000	1
57.322042	6.315140	0.000000	0.006425	-0.002377	0.000000	0.006850	-2.163946	0.000000	0.000000	0.000000	0.000000	0.000000	1
60.431034	6.315140	0.000000	0.002812	-0.013238	0.000000	0.013534	1.049282	0.000000	0.000000	0.000000	0.000000	0.000000	1
63.540026	6.315140	0.000000	-0.000021	-0.000509	0.000000	0.000510	1.461291	0.000000	0.000000	0.000000	0.000000	0.000000	1
66.649018	6.315140	0.000000	-0.001131	-0.001983	0.000000	0.002283	-3.491325	0.000000	0.000000	0.000000	0.000000	0.000000	1
69.758010	6.315140	0.000000	0.005050	-0.023206	0.000000	0.023749	-1.084829	0.000000	0.000000	0.000000	0.000000	0.000000	1
72.867002	6.315140	0.000000	0.003891	-0.024387	0.000000	0.024696	11.391437	0.000000	0.000000	0.000000	0.000000	0.000000	1
75.975994	6.315140	0.000000	-0.006655	0.022546	0.000000	0.023508	63.943251	0.000000	0.000000	0.000000	0.000000	0.000000	1
79.084987	6.315140	0.000000	0.030906	0.269209	0.000000	0.270978	123.773431	0.000000	0.000000	0.000000	0.000000	0.000000	2
82.193979	6.315140	0.000000	0.070959	0.841554	0.000000	0.844541	47.587297	0.000000	0.000000	0.000000	0.000000	0.000000	2
85.302971	6.315140	0.000000	0.077777	0.864131	0.000000	0.867624	-96.405607	0.000000	0.000000	0.000000	0.000000	0.000000	2
88.411963	6.315140	0.000000	0.073478	0.353585	0.000000	0.361139	-112.775543	0.000000	0.000000	0.000000	0.000000	0.000000	2
91.520955	6.315140	0.000000	0.087950	0.162644	0.000000	0.184900	-61.530219	0.000000	0.000000	0.000000	0.000000	0.000000	2
94.629947	6.315140	0.000000	0.045904	0.064848	0.000000	0.079451	-49.270129	0.000000	0.000000	0.000000	0.000000	0.000000	1
97.738939	6.315140	0.000000	0.016024	0.040159	0.000000	0.043238	-46.697013	0.000000	0.000000	0.000000	0.000000	0.000000	1
100.847931	6.315140	0.000000	-0.024147	0.012633	0.000000	0.027252	-29.019299	0.000000	0.000000	0.000000	0.000000	0.000000	1
103.956923	6.315140	0.000000	-0.011892	0.001570	0.000000	0.011995	-12.524859	0.000000	0.000000	0.000000	0.000000	0.000000	1
107.065915	6.315140	0.000000	0.011525	0.004923	0.000000	0.012532	-8.486464	0.000000	0.000000	0.000000	0.000000	0.000000	1
110.174908	6.315140	0.000000	-0.004239	0.006970	0.000000	0.008158	-10.362364	0.000000	0.000000	0.000000	0.000000	0.000000	1
113.283900	6.315140	0.000000	-0.011601	0.003774	0.000000	0.012199	-10.590074	0.000000	0.000000	0.000000	0.000000	0.000000	1
116.392892	6.315140	0.000000	-0.015819	-0.000488	0.000000	0.015827	-3.816286	0.000000	0.000000	0.000000	0.000000	0.000000	1
119.501884	6.315140	0.000000	-0.010727	-0.002751	0.000000	0.011074	1.173697	0.000000	0.000000	0.000000	0.000000	0.000000	1
122.610876	6.315140	0.000000	-0.007841	-0.002621	0.000000	0.008267	1.012994	0.000000	0.000000	0.000000	0.000000	0.000000	1
125.719868	6.315140	0.000000	-0.005467	-0.002940	0.000000	0.006207	1.550469	0.000000	0.000000	0.000000	0.000000	0.000000	1
128.828860	6.315140	0.000000	-0.004787	-0.001707	0.000000	0.005082	2.066915	0.000000	0.000000	0.000000	0.000000	0.000000	1
131.937852	6.315140	0.000000	-0.002593	0.005837	0.000000	0.006387	2.346539	0.000000	0.000000	0.000000	0.000000	0.000000	1
135.046844	6.315140	0.000000	-0.005913	0.010740	0.000000	0.012260	1.261957	0.000000	0.000000	0.000000	0.000000	0.000000	1
138.155836	6.315140	0.000000	-0.007341	0.009824	0.000000	0.012264	-0.216346	0.000000	0.000000	0.000000	0.000000	0.000000	1
141.264829	6.315140	0.000000	-0.007292	0.007831	0.000000	0.010700	-0.753774	0.000000	0.000000	0.000000	0.000000	0.000000	1
144.373821	6.315140	0.000000	-0.001626	0.000741	0.000000	0.001787	0.015839	0.000000	0.000000	0.000000	0.000000	0.000000	1
147.482813	6.315140	0.000000	-0.002753	0.001896	0.000000	0.003343	0.790634	0.000000	0.000000	0.000000	0.000000	0.000000	1
150.591805	6.315140	0.000000	-0.003087	0.002224	0.000000	0.003805	1.571144	0.000000	0.000000	0.000000	0.000000	0.000000	1
153.700797	6.315140	0.000000	-0.012485	0.005692	0.000000	0.013721	1.501496	0.000000	0.000000	0.000000	0.000000	0.000000	1
156.809789	6.315140	0.000000	-0.001391	0.003147	0.000000	0.003441	0.591560	0.000000	0.000000	0.000000	0.000000	0.000000	1
159.918781	6.315140	0.000000	0.000741	0.002107	0.000000	0.002234	0.721571	0.000000	0.000000	0.000000	0.000000	0.000000	1
4.469176	9.424132	0.000000	0.003216	0.007593	0.000000	0.008246	0.874175	0.000000	0.000000	0.000000	0.000000	0.000000	1
7.578168	9.424132	0.000000	0.000451	0.007725	0.000000	0.007738	0.528909	0.000000	0.000000	0.000000	0.000000	0.000000	1
10.687160	9.424132	0.000000	0.003440	0.004905	0.000000	0.005991	0.883024	0.000000	0.000000	0.000000	0.000000	0.000000	1
13.796152	9.424132	0.000000	0.006648	0.008925	0.000000	0.011129	1.134860	0.000000	0.000000	0.000000	0.000000	0.000000	1
16.905145	9.424132	0.000000	0.007060	0.010097	0.000000	0.012320	-0.300183	0.000000	0.000000	0.000000	0.000000	0.000000	1
20.014137	9.424132	0.000000	0.003124	0.003341	0.000000	0.004574	-0.581954	0.000000	0.000000	0.000000	0.000000	0.000000	1
23.123129	9.424132	0.000000	0.002999	0.004006	0.000000	0.005004	0.852081	0.000000	0.000000	0.000000	0.000000	0.000000	1
26.232121	9.424132	0.000000	0.004180	0.010694	0.000000	0.011482	1.106005	0.000000	0.000000	0.000000	0.000000	0.000000	1
29.341113	9.424132	0.000000	0.003909	0.012725	0.000000	0.013312	2.371718	0.000000	0.000000	0.000000	0.000000	0.000000	1
32.450105	9.424132	0.000000	0.004659	0.026032	0.000000	0.026445	2.475329	0.000000	0.000000	0.000000	0.000000	0.000000	1
35.559097	9.424132	0.000000	0.007955	0.036337	0.000000	0.037197	-0.423611	0.000000	0.000000	0.000000	0.000000	0.000000	1
38.668089	9.424132	0.000000	0.009528	0.022543	0.000000	0.024473	-2.883444	0.000000	0.000000	0.000000	0.000000	0.000000	1
41.777081	9.424132	0.000000	0.002466	0.003699	0.000000	0.004445	-2.577526	0.000000	0.000000	0.000000	0.000000	0.000000	1
44.886073	9.424132	0.000000	-0.000496	-0.002521	0.000000	0.002569	0.898564	0.000000	0.000000	0.000000	0.000000	0.000000	1
47.995066	9.424132	0.000000	0.008774	-0.002262	0.000000	0.009061	2.818439	0.000000	0.000000	0.000000	0.000000	0.000000	1
51.104058	9.424132	0.000000	0.013480	0.001730	0.000000	0.013591	2.675788	0.000000	0.000000	0.000000	0.000000	0.000000	1
54.213050	9.424132	0.000000	0.010998	0.010483	0.000000	0.015194	1.719536	0.000000	0.000000	0.000000	0.000000	0.000000	1
57.322042	9.424132	0.000000	0.004750	0.008288	0.000000	0.009553	2.564877	0.000000	0.000000	0.000000	0.000000	0.000000	1
60.431034	9.424132	0.000000	-0.004275	0.003283	0.000000	0.005390	7.022929	0.000000	0.000000	0.000000	0.000000	0.000000	1
63.540026	9.424132	0.000000	-0.004374	0.024895	0.000000	0.025276	5.443232	0.000000	0.000000	0.000000	0.000000	0.000000	1
66.649018	9.424132	0.000000	-0.008294	0.009045	0.000000	0.012272	-3.338246	0.000000	0.000000	0.000000	0.000000	0.000000	1
69.758010	9.424132	0.000000	-0.026577	-0.030304	0.000000	0.040307	0.566403	0.000000	0.000000	0.000000	0.000000	0.000000	1
72.867002	9.424132	0.000000	-0.025379	-0.029639	0.000000	0.039020	14.680653	0.000000	0.000000	0.000000	0.000000	0.000000	1
75.975994	9.424132	0.000000	-0.009381	0.012471	0.000000	0.015606	132.015693	0.000000	0.000000	0.000000	0.000000	0.000000	2
79.084987	9.424132	0.000000	0.144701	0.940214	0.000000	0.951284	166.772080	0.000000	0.000000	0.000000	0.000000	0.000000	2
82.193979	9.424132	0.000000	0.227705	1.138197	0.000000	1.160751	33.416680	0.000000	0.000000	0.000000	0.000000	0.000000	2
85.302971	9.424132	0.000000	0.180859	0.960936	0.000000	0.977808	-75.295692	0.000000	0.000000	0.000000	0.000000	0.000000	2
88.411963	9.424132	0.000000	0.141069	0.751549	0.000000	0.764674	-145.114100	0.000000	0.000000	0.000000	0.000000	0.000000	2
91.520955	9.424132	0.000000	0.154398	0.353457	0.000000	0.385708	-115.638034	0.000000	0.000000	0.000000	0.000000	0.000000	1
94.629947	9.424132	0.000000	0.282431	0.323850	0.000000	0.429705	-73.445240	0.000000	0.000000	0.000000	0.000000	0.000000	1
97.738939	9.424132	0.000000	0.192438	0.207447	0.000000	0.282961	-79.397164	0.000000	0.000000	0.000000	0.000000	0.000000	2
100.847931	9.424132	0.000000	0.085948	0.066855	0.000000	0.108888	-63.690760	0.000000	0.000000	0.000000	0.000000	0.000000	2
103.956923	9.424132	0.000000	0.051158	0.045707	0.000000	0.068603	-43.693669	0.000000	0.000000	0.000000	0.000000	0.000000	2
107.065915	9.424132	0.000000	0.048461	0.042740	0.000000	0.064615	-35.896564	0.000000	0.000000	0.000000	0.000000	0.000000	1
110.174908	9.424132	0.000000	0.091869	0.067662	0.000000	0.114096	-32.872842	0.000000	0.000000	0.000000	0.000000	0.000000	1
113.283900	9.424132	0.000000	0.052321	0.074853	0.000000	0.091326	-48.982402	0.000000	0.000000	0.000000	0.000000	0.000000	2
116.392892	9.424132	0.000000	-0.019285	0.004893	0.000000	0.019896	-49.863228	0.000000	0.000000	0.000000	0.000000	0.000000	1
119.501884	9.424132	0.000000	-0.010129	0.002257	0.000000	0.010377	-21.728201	0.000000	0.000000	0.000000	0.000000	0.000000	1
122.610876	9.424132	0.000000	-0.007619	-0.003856	0.000000	0.008539	-3.197057	0.000000	0.000000	0.000000	0.000000	0.000000	1
125.719868	9.424132	0.000000	-0.007796	-0.003245	0.000000	0.008445	1.335162	0.000000	0.000000	0.000000	0.000000	0.000000	1
128.828860	9.424132	0.000000	-0.004299	-0.000111	0.000000	0.004301	1.367323	0.000000	0.000000	0.000000	0.000000	0.000000	1
131.937852	9.424132	0.000000	-0.001562	0.001602	0.000000	0.002238	1.509911	0.000000	0.000000	0.000000	0.000000	0.000000	1
135.046844	9.424132	0.000000	-0.007372	0.006342	0.000000	0.009724	0.941729	0.000000	0.000000	0.000000	0.000000	0.000000	1
138.155836	9.424132	0.000000	-0.004972	0.005285	0.000000	0.007256	-0.649888	0.000000	0.000000	0.000000	0.000000	0.000000	1
141.264829	9.424132	0.000000	-0.004057	0.003356	0.000000	0.005265	-0.211351	0.000000	0.000000	0.000000	0.000000	0.000000	1
144.373821	9.424132	0.000000	-0.006672	0.006918	0.000000	0.009611	0.976866	0.000000	0.000000	0.000000	0.000000	0.000000	1
147.482813	9.424132	0.000000	-0.007347	0.005844	0.000000	0.009388	0.945478	0.000000	0.000000	0.000000	0.000000	0.000000	1
150.591805	9.424132	0.000000	-0.007582	0.005463	0.000000	0.009345	0.583320	0.000000	0.000000	0.000000	0.000000	0.000000	1
153.700797	9.424132	0.000000	-0.016360	0.009454	0.000000	0.018895	-0.680355	0.000000	0.000000	0.000000	0.000000	0.000000	1
156.809789	9.424132	0.000000	-0.008073	0.000053	0.000000	0.008074	-0.731330	0.000000	0.000000	0.000000	0.000000	0.000000	1
159.918781	9.424132	0.000000	-0.003910	0.002028	0.000000	0.004405	0.409193	0.000000	0.000000	0.000000	0.000000	0.000000	1
4.469176	12.533124	0.000000	0.004822	0.005839	0.000000	0.007572	0.229716	0.000000	0.000000	0.000000	0.000000	0.000000	1
7.578168	12.533124	0.000000	-0.000976	0.006265	0.000000	0.006340	0.317794	0.000000	0.000000	0.000000	0.000000	0.000000	1
10.687160	12.533124	0.000000	0.002294	0.007272	0.000000	0.007625	0.580819	0.000000	0.000000	0.000000	0.000000	0.000000	1
13.796152	12.533124	0.000000	0.002884	0.007227	0.000000	0.007782	0.370185	0.000000	0.000000	0.000000	0.000000	0.000000	1
16.905145	12.533124	0.000000	0.003788	0.004276	0.000000	0.005713	0.379523	0.000000	0.000000	0.000000	0.000000	0.000000	1
20.014137	12.533124	0.000000	0.004625	0.007420	0.000000	0.008744	0.690185	0.000000	0.000000	0.000000	0.000000	0.000000	1
23.123129	12.533124	0.000000	0.003214	0.010534	0.000000	0.011013	-0.063609	0.000000	0.000000	0.000000	0.000000	0.000000	1
26.232121	12.533124	0.000000	0.002176	0.009982	0.000000	0.010216	-0.679194	0.000000	0.000000	0.000000	0.000000	0.000000	1
29.341113	12.533124	0.000000	0.000890	0.006061	0.000000	0.006126	1.544399	0.000000	0.000000	0.000000	0.000000	0.000000	1
32.450105	12.533124	0.000000	0.001941	0.005711	0.000000	0.006032	3.006514	0.000000	0.000000	0.000000	0.000000	0.000000	1
35.559097	12.533124	0.000000	0.007854	0.007660	0.000000	0.010971	1.487898	0.000000	0.000000	0.000000	0.000000	0.000000	1
38.668089	12.533124	0.000000	0.001579	0.022638	0.000000	0.022693	-1.832960	0.000000	0.000000	0.000000	0.000000	0.000000	1
41.777081	12.533124	0.000000	0.000260	0.009150	0.000000	0.009154	-2.608030	0.000000	0.000000	0.000000	0.000000	0.000000	1
44.886073	12.533124	0.000000	-0.003527	-0.001092	0.000000	0.003692	1.590451	0.000000	0.000000	0.000000	0.000000	0.000000	1
47.995066	12.533124	0.000000	-0.002354	0.010888	0.000000	0.011140	3.926323	0.000000	0.000000	0.000000	0.000000	0.000000	1
51.104058	12.533124	0.000000	0.004553	0.012460	0.000000	0.013266	6.326224	0.000000	0.000000	0.000000	0.000000	0.000000	2
54.213050	12.533124	0.000000	0.011457	0.020574	0.000000	0.023549	5.836319	0.000000	0.000000	0.000000	0.000000	0.000000	1
57.322042	12.533124	0.000000	-0.031675	0.006700	0.000000	0.032375	3.861224	0.000000	0.000000	0.000000	0.000000	0.000000	1
60.431034	12.533124	0.000000	-0.031272	0.008574	0.000000	0.032426	7.955978	0.000000	0.000000	0.000000	0.000000	0.000000	1
63.540026	12.533124	0.000000	-0.015658	0.024390	0.000000	0.028983	7.164323	0.000000	0.000000	0.000000	0.000000	0.000000	2
66.649018	12.533124	0.000000	-0.017724	0.039229	0.000000	0.043047	-4.766846	0.000000	0.000000	0.000000	0.000000	0.000000	1
69.758010	12.533124	0.000000	-0.047825	-0.027242	0.000000	0.055040	-2.751233	0.000000	0.000000	0.000000	0.000000	0.000000	1
72.867002	12.533124	0.000000	-0.050150	-0.023296	0.000000	0.055297	12.431659	0.000000	0.000000	0.000000	0.000000	0.000000	1
75.975994	12.533124	0.000000	-0.040905	0.011385	0.000000	0.042460	140.113140	0.000000	0.000000	0.000000	0.000000	0.000000	2
79.084987	12.533124	0.000000	0.031471	0.904920	0.000000	0.905468	196.391462	0.000000	0.000000	0.000000	0.000000	0.000000	2
82.193979	12.533124	0.000000	0.119010	1.103813	0.000000	1.110210	85.788245	0.000000	0.000000	0.000000	0.000000	0.000000	2
85.302971	12.533124	0.000000	0.183211	1.301799	0.000000	1.314628	-25.709605	0.000000	0.000000	0.000000	0.000000	0.000000	2
88.411963	12.533124	0.000000	0.237097	0.914864	0.000000	0.945088	-134.489177	0.000000	0.000000	0.000000	0.000000	0.000000	1
91.520955	12.533124	0.000000	0.423490	0.377179	0.000000	0.567104	-95.979886	0.000000	0.000000	0.000000	0.000000	0.000000	1
94.629947	12.533124	0.000000	0.403734	0.375381	0.000000	0.551283	-23.148116	0.000000	0.000000	0.000000	0.000000	0.000000	1
97.738939	12.533124	0.000000	0.333172	0.333304	0.000000	0.471269	-55.914416	0.000000	0.000000	0.000000	0.000000	0.000000	2
100.847931	12.533124	0.000000	0.248542	0.231636	0.000000	0.339748	-67.227543	0.000000	0.000000	0.000000	0.000000	0.000000	1
103.956923	12.533124	0.000000	0.213297	0.198972	0.000000	0.291694	-45.042278	0.000000	0.000000	0.000000	0.000000	0.000000	1
107.065915	12.533124	0.000000	0.254554	0.166925	0.000000	0.304403	-32.088660	0.000000	0.000000	0.000000	0.000000	0.000000	1
110.174908	12.533124	0.000000	0.208326	0.180656	0.000000	0.275747	-27.397692	0.000000	0.000000	0.000000	0.000000	0.000000	1
113.283900	12.533124	0.000000	0.295775	0.261770	0.000000	0.394976	-52.937656	0.000000	0.000000	0.000000	0.000000	0.000000	1
116.392892	12.533124	0.000000	0.227750	0.166249	0.000000	0.281973	-79.641151	0.000000	0.000000	0.000000	0.000000	0.000000	2
119.501884	12.533124	0.000000	0.038793	0.017325	0.000000	0.042486	-62.541804	0.000000	0.000000	0.000000	0.000000	0.000000	2
122.610876	12.533124	0.000000	-0.011121	-0.015214	0.000000	0.018845	-27.759608	0.000000	0.000000	0.000000	0.000000	0.000000	1
125.719868	12.533124	0.000000	-0.009236	-0.011809	0.000000	0.014992	-3.871483	0.000000	0.000000	0.000000	0.000000	0.000000	1
128.828860	12.533124	0.000000	-0.002601	0.000958	0.000000	0.002772	2.484902	0.000000	0.000000	0.000000	0.000000	0.000000	1
131.937852	12.533124	0.000000	-0.001431	0.005491	0.000000	0.005675	0.900486	0.000000	0.000000	0.000000	0.000000	0.000000	1
135.046844	12.533124	0.000000	-0.015333	0.008248	0.000000	0.017411	-0.426074	0.000000	0.000000	0.000000	0.000000	0.000000	1
138.155836	12.533124	0.000000	-0.003874	0.003350	0.000000	0.005122	-1.076219	0.000000	0.000000	0.000000	0.000000	0.000000	1
141.264829	12.533124	0.000000	-0.003624	0.002147	0.000000	0.004212	0.048779	0.000000	0.000000	0.000000	0.000000	0.000000	1
144.373821	12.533124	0.000000	-0.007625	0.008713	0.000000	0.011579	-0.172592	0.000000	0.000000	0.000000	0.000000	0.000000	1
147.482813	12.533124	0.000000	-0.012235	0.009589	0.000000	0.015545	-1.392974	0.000000	0.000000	0.000000	0.000000	0.000000	1
150.591805	12.533124	0.000000	-0.007803	0.003977	0.000000	0.008758	-1.544973	0.000000	0.000000	0.000000	0.000000	0.000000	1
153.700797	12.533124	0.000000	-0.004330	0.002323	0.000000	0.004914	-1.342216	0.000000	0.000000	0.000000	0.000000	0.000000	1
156.809789	12.533124	0.000000	-0.004652	0.005285	0.000000	0.007041	-1.160278	0.000000	0.000000	0.000000	0.000000	0.000000	1
159.918781	12.533124	0.000000	-0.006475	-0.003014	0.000000	0.007142	-1.063309	0.000000	0.000000	0.000000	0.000000	0.000000	1
4.469176	15.642117	0.000000	0.001677	0.003306	0.000000	0.003707	0.108284	0.000000	0.000000	0.000000	0.000000	0.000000	1
7.578168	15.642117	0.000000	0.000033	0.003223	0.000000	0.003223	0.088163	0.000000	0.000000	0.000000	0.000000	0.000000	1
10.687160	15.642117	0.000000	0.001899	0.007118	0.000000	0.007367	-0.633934	0.000000	0.000000	0.000000	0.000000	0.000000	1
13.796152	15.642117	0.000000	0.002546	0.006942	0.000000	0.007394	-1.248861	0.000000	0.000000	0.000000	0.000000	0.000000	1
16.905145	15.642117	0.000000	0.004011	0.004330	0.000000	0.005902	-0.347730	0.000000	0.000000	0.000000	0.000000	0.000000	1
20.014137	15.642117	0.000000	0.001664	0.009921	0.000000	0.010059	-1.616123	0.000000	0.000000	0.000000	0.000000	0.000000	1
23.123129	15.642117	0.000000	0.007770	0.013874	0.000000	0.015901	-3.684667	0.000000	0.000000	0.000000	0.000000	0.000000	1
26.232121	15.642117	0.000000	0.016875	0.016640	0.000000	0.023700	-2.312397	0.000000	0.000000	0.000000	0.000000	0.000000	1
29.341113	15.642117	0.000000	-0.013793	0.009670	0.000000	0.016845	1.180893	0.000000	0.000000	0.000000	0.000000	0.000000	1
32.450105	15.642117	0.000000	-0.008076	0.012814	0.000000	0.015147	2.499563	0.000000	0.000000	0.000000	0.000000	0.000000	1
35.559097	15.642117	0.000000	0.013008	0.019521	0.000000	0.023458	0.755122	0.000000	0.000000	0.000000	0.000000	0.000000	1
38.668089	15.642117	0.000000	0.012690	0.019990	0.000000	0.023677	-0.984365	0.000000	0.000000	0.000000	0.000000	0.000000	1
41.777081	15.642117	0.000000	0.004500	0.017000	0.000000	0.017586	0.055980	0.000000	0.000000	0.000000	0.000000	0.000000	1
44.886073	15.642117	0.000000	-0.012671	0.022703	0.000000	0.026000	1.053651	0.000000	0.000000	0.000000	0.000000	0.000000	1
47.995066	15.642117	0.000000	-0.011944	0.016011	0.000000	0.019975	-0.063771	0.000000	0.000000	0.000000	0.000000	0.000000	1
51.104058	15.642117	0.000000	-0.013986	0.007927	0.000000	0.016076	5.026586	0.000000	0.000000	0.000000	0.000000	0.000000	1
54.213050	15.642117	0.000000	-0.035945	0.018646	0.000000	0.040494	4.757814	0.000000	0.000000	0.000000	0.000000	0.000000	1
57.322042	15.642117	0.000000	-0.029973	0.001976	0.000000	0.030038	0.282452	0.000000	0.000000	0.000000	0.000000	0.000000	1
60.431034	15.642117	0.000000	-0.029788	0.003981	0.000000	0.030053	7.290695	0.000000	0.000000	0.000000	0.000000	0.000000	1
63.540026	15.642117	0.000000	-0.020623	0.045873	0.000000	0.050296	8.842623	0.000000	0.000000	0.000000	0.000000	0.000000	1
66.649018	15.642117	0.000000	-0.018056	0.047328	0.000000	0.050655	-6.032439	0.000000	0.000000	0.000000	0.000000	0.000000	1
69.758010	15.642117	0.000000	-0.062427	0.014153	0.000000	0.064011	-8.604031	0.000000	0.000000	0.000000	0.000000	0.000000	2
72.867002	15.642117	0.000000	-0.067721	0.018828	0.000000	0.070290	5.733272	0.000000	0.000000	0.000000	0.000000	0.000000	2
75.975994	15.642117	0.000000	-0.047188	0.044980	0.000000	0.065191	70.378756	0.000000	0.000000	0.000000	0.000000	0.000000	1
79.084987	15.642117	0.000000	-0.052494	0.362286	0.000000	0.366070	143.194936	0.000000	0.000000	0.000000	0.000000	0.000000	2
82.193979	15.642117	0.000000	-0.024026	0.935120	0.000000	0.935429	97.342079	0.000000	0.000000	0.000000	0.000000	0.000000	2
85.302971	15.642117	0.000000	0.107434	0.907451	0.000000	0.913788	-8.358900	0.000000	0.000000	0.000000	0.000000	0.000000	2
88.411963	15.642117	0.000000	0.214893	0.735461	0.000000	0.766212	-67.294569	0.000000	0.000000	0.000000	0.000000	0.000000	2
91.520955	15.642117	0.000000	0.354774	0.293755	0.000000	0.460605	-3.210896	0.000000	0.000000	0.000000	0.000000	0.000000	2
94.629947	15.642117	0.000000	0.400524	0.447583	0.000000	0.600624	45.289924	0.000000	0.000000	0.000000	0.000000	0.000000	2
97.738939	15.642117	0.000000	0.369348	0.565247	0.000000	0.675220	-23.879896	0.000000	0.000000	0.000000	0.000000	0.000000	2
100.847931	15.642117	0.000000	0.313351	0.300680	0.000000	0.434277	-55.172303	0.000000	0.000000	0.000000	0.000000	0.000000	1
103.956923	15.642117	0.000000	0.256696	0.160820	0.000000	0.302912	-25.898000	0.000000	0.000000	0.000000	0.000000	0.000000	1
107.065915	15.642117	0.000000	0.271210	0.195153	0.000000	0.334125	-4.224542	0.000000	0.000000	0.000000	0.000000	0.000000	1
110.174908	15.642117	0.000000	0.319101	0.255657	0.000000	0.408884	-7.987711	0.000000	0.000000	0.000000	0.000000	0.000000	1
113.283900	15.642117	0.000000	0.347253	0.264062	0.000000	0.436249	-22.708720	0.000000	0.000000	0.000000	0.000000	0.000000	1
116.392892	15.642117	0.000000	0.370090	0.237047	0.000000	0.439497	-42.094053	0.000000	0.000000	0.000000	0.000000	0.000000	1
119.501884	15.642117	0.000000	0.258323	0.186846	0.000000	0.318814	-56.381500	0.000000	0.000000	0.000000	0.000000	0.000000	2
122.610876	15.642117	0.000000	0.060896	0.047975	0.000000	0.077524	-44.697941	0.000000	0.000000	0.000000	0.000000	0.000000	2