TITLE = "PIV Result  3333 "
VARIABLES = "X (mm)""Y (mm)""Z (mm)""U (m/s)""V (m/s)""W (m/s)""Speed (m/s)""Vorticity""U-std""V-std""W-std""Speed-std""Vorticity-std""Flag"
ZONE T="ZONE 3333 "
I= 51 , J= 16 , K= 1 , F=POINT
DT=(DOUBLE DOUBLE DOUBLE DOUBLE DOUBLE DOUBLE DOUBLE DOUBLE DOUBLE DOUBLE DOUBLE DOUBLE DOUBLE DOUBLE)
4.469176	3.206148	0.000000	0.003981	0.006988	0.000000	0.008043	-0.853897	0.000000	0.000000	0.000000	0.000000	0.000000	1
7.578168	3.206148	0.000000	-0.002369	0.008569	0.000000	0.008890	-1.095809	0.000000	0.000000	0.000000	0.000000	0.000000	1
10.687160	3.206148	0.000000	-0.003050	0.008223	0.000000	0.008770	-1.230576	0.000000	0.000000	0.000000	0.000000	0.000000	1
13.796152	3.206148	0.000000	0.004466	0.005027	0.000000	0.006725	-0.267972	0.000000	0.000000	0.000000	0.000000	0.000000	1
16.905145	3.206148	0.000000	0.006490	0.009528	0.000000	0.011528	-0.047417	0.000000	0.000000	0.000000	0.000000	0.000000	1
20.014137	3.206148	0.000000	0.003523	0.005406	0.000000	0.006453	-0.851489	0.000000	0.000000	0.000000	0.000000	0.000000	1
23.123129	3.206148	0.000000	0.002175	0.004911	0.000000	0.005371	0.336615	0.000000	0.000000	0.000000	0.000000	0.000000	1
26.232121	3.206148	0.000000	0.004057	0.010721	0.000000	0.011463	1.637927	0.000000	0.000000	0.000000	0.000000	0.000000	1
29.341113	3.206148	0.000000	0.010530	0.016290	0.000000	0.019397	-0.826365	0.000000	0.000000	0.000000	0.000000	0.000000	1
32.450105	3.206148	0.000000	0.007242	0.011447	0.000000	0.013545	-4.315321	0.000000	0.000000	0.000000	0.000000	0.000000	1
35.559097	3.206148	0.000000	-0.003366	0.000373	0.000000	0.003386	-4.574462	0.000000	0.000000	0.000000	0.000000	0.000000	1
38.668089	3.206148	0.000000	-0.003306	-0.000946	0.000000	0.003439	-3.175820	0.000000	0.000000	0.000000	0.000000	0.000000	1
41.777081	3.206148	0.000000	0.002289	-0.000985	0.000000	0.002492	-2.740801	0.000000	0.000000	0.000000	0.000000	0.000000	1
44.886073	3.206148	0.000000	-0.000844	-0.000861	0.000000	0.001206	-2.142215	0.000000	0.000000	0.000000	0.000000	0.000000	1
47.995066	3.206148	0.000000	-0.001290	-0.000182	0.000000	0.001303	-0.910561	0.000000	0.000000	0.000000	0.000000	0.000000	1
51.104058	3.206148	0.000000	0.001533	0.000221	0.000000	0.001549	-0.713312	0.000000	0.000000	0.000000	0.000000	0.000000	1
54.213050	3.206148	0.000000	0.001272	-0.000174	0.000000	0.001283	-1.192662	0.000000	0.000000	0.000000	0.000000	0.000000	1
57.322042	3.206148	0.000000	-0.001824	0.003372	0.000000	0.003833	-1.872274	0.000000	0.000000	0.000000	0.000000	0.000000	1
60.431034	3.206148	0.000000	-0.002838	0.003821	0.000000	0.004760	-5.783383	0.000000	0.000000	0.000000	0.000000	0.000000	1
63.540026	3.206148	0.000000	-0.002922	-0.000343	0.000000	0.002942	40.695813	0.000000	0.000000	0.000000	0.000000	0.000000	1
66.649018	3.206148	0.000000	0.001837	-0.000533	0.000000	0.001913	133.918514	0.000000	0.000000	0.000000	0.000000	0.000000	1
69.758010	3.206148	0.000000	-0.416450	0.426901	0.000000	0.596385	112.022431	0.000000	0.000000	0.000000	0.000000	0.000000	2
72.867002	3.206148	0.000000	-0.369845	0.438118	0.000000	0.573352	56.904714	0.000000	0.000000	0.000000	0.000000	0.000000	1
75.975994	3.206148	0.000000	-0.299190	0.606267	0.000000	0.676073	71.660166	0.000000	0.000000	0.000000	0.000000	0.000000	1
79.084987	3.206148	0.000000	-0.381811	0.889907	0.000000	0.968356	15.889971	0.000000	0.000000	0.000000	0.000000	0.000000	1
82.193979	3.206148	0.000000	-0.445788	0.860643	0.000000	0.969243	-167.805213	0.000000	0.000000	0.000000	0.000000	0.000000	1
85.302971	3.206148	0.000000	-0.144130	0.081816	0.000000	0.165733	-167.234731	0.000000	0.000000	0.000000	0.000000	0.000000	2
88.411963	3.206148	0.000000	-0.079818	0.017266	0.000000	0.081664	-32.039444	0.000000	0.000000	0.000000	0.000000	0.000000	1
91.520955	3.206148	0.000000	-0.091551	0.026379	0.000000	0.095276	-19.106899	0.000000	0.000000	0.000000	0.000000	0.000000	1
94.629947	3.206148	0.000000	-0.036579	0.020617	0.000000	0.041989	-14.049290	0.000000	0.000000	0.000000	0.000000	0.000000	2
97.738939	3.206148	0.000000	0.003256	-0.000170	0.000000	0.003260	-2.615850	0.000000	0.000000	0.000000	0.000000	0.000000	1
100.847931	3.206148	0.000000	-0.002621	0.001414	0.000000	0.002979	5.699659	0.000000	0.000000	0.000000	0.000000	0.000000	1
103.956923	3.206148	0.000000	-0.001700	0.000151	0.000000	0.001706	5.479995	0.000000	0.000000	0.000000	0.000000	0.000000	1
107.065915	3.206148	0.000000	0.001221	-0.000860	0.000000	0.001493	3.576506	0.000000	0.000000	0.000000	0.000000	0.000000	1
110.174908	3.206148	0.000000	-0.008240	-0.000685	0.000000	0.008268	3.446781	0.000000	0.000000	0.000000	0.000000	0.000000	1
113.283900	3.206148	0.000000	-0.007182	-0.000725	0.000000	0.007219	4.326438	0.000000	0.000000	0.000000	0.000000	0.000000	1
116.392892	3.206148	0.000000	-0.001736	0.000206	0.000000	0.001748	2.663574	0.000000	0.000000	0.000000	0.000000	0.000000	1
119.501884	3.206148	0.000000	0.000098	0.000183	0.000000	0.000208	1.307010	0.000000	0.000000	0.000000	0.000000	0.000000	1
122.610876	3.206148	0.000000	-0.002351	-0.000389	0.000000	0.002383	0.938395	0.000000	0.000000	0.000000	0.000000	0.000000	1
125.719868	3.206148	0.000000	0.000020	-0.000658	0.000000	0.000658	0.761899	0.000000	0.000000	0.000000	0.000000	0.000000	1
128.828860	3.206148	0.000000	-0.001559	-0.000507	0.000000	0.001639	1.080941	0.000000	0.000000	0.000000	0.000000	0.000000	1
131.937852	3.206148	0.000000	-0.000849	-0.000095	0.000000	0.000855	1.028432	0.000000	0.000000	0.000000	0.000000	0.000000	1
135.046844	3.206148	0.000000	-0.002449	0.003545	0.000000	0.004308	0.414821	0.000000	0.000000	0.000000	0.000000	0.000000	1
138.155836	3.206148	0.000000	-0.002576	0.002777	0.000000	0.003788	1.141825	0.000000	0.000000	0.000000	0.000000	0.000000	1
141.264829	3.206148	0.000000	-0.004516	0.004873	0.000000	0.006644	2.273125	0.000000	0.000000	0.000000	0.000000	0.000000	1
144.373821	3.206148	0.000000	-0.004245	0.006144	0.000000	0.007468	0.895022	0.000000	0.000000	0.000000	0.000000	0.000000	1
147.482813	3.206148	0.000000	-0.008282	0.007539	0.000000	0.011200	-0.975636	0.000000	0.000000	0.000000	0.000000	0.000000	1
150.591805	3.206148	0.000000	-0.006920	0.009407	0.000000	0.011678	-1.000611	0.000000	0.000000	0.000000	0.000000	0.000000	1
153.700797	3.206148	0.000000	-0.008322	0.007225	0.000000	0.011020	-0.475246	0.000000	0.000000	0.000000	0.000000	0.000000	1
156.809789	3.206148	0.000000	-0.004806	0.008848	0.000000	0.010069	-0.519845	0.000000	0.000000	0.000000	0.000000	0.000000	1
159.918781	3.206148	0.000000	-0.005265	0.007755	0.000000	0.009373	-0.602788	0.000000	0.000000	0.000000	0.000000	0.000000	1
4.469176	6.315140	0.000000	0.005887	0.009277	0.000000	0.010988	0.155305	0.000000	0.000000	0.000000	0.000000	0.000000	1
7.578168	6.315140	0.000000	0.001850	0.008512	0.000000	0.008710	-0.536794	0.000000	0.000000	0.000000	0.000000	0.000000	1
10.687160	6.315140	0.000000	-0.001138	0.006670	0.000000	0.006766	-0.715964	0.000000	0.000000	0.000000	0.000000	0.000000	1
13.796152	6.315140	0.000000	0.010940	0.011265	0.000000	0.015703	0.222507	0.000000	0.000000	0.000000	0.000000	0.000000	1
16.905145	6.315140	0.000000	0.004203	0.014604	0.000000	0.015197	-0.214608	0.000000	0.000000	0.000000	0.000000	0.000000	1
20.014137	6.315140	0.000000	0.002548	0.011220	0.000000	0.011506	-1.518252	0.000000	0.000000	0.000000	0.000000	0.000000	1
23.123129	6.315140	0.000000	0.002692	0.004909	0.000000	0.005598	-0.233624	0.000000	0.000000	0.000000	0.000000	0.000000	1
26.232121	6.315140	0.000000	0.004765	0.010856	0.000000	0.011856	2.090702	0.000000	0.000000	0.000000	0.000000	0.000000	1
29.341113	6.315140	0.000000	0.014216	0.019518	0.000000	0.024146	0.338617	0.000000	0.000000	0.000000	0.000000	0.000000	1
32.450105	6.315140	0.000000	0.013188	0.013880	0.000000	0.019146	-2.401757	0.000000	0.000000	0.000000	0.000000	0.000000	1
35.559097	6.315140	0.000000	0.008966	0.009681	0.000000	0.013195	-2.229220	0.000000	0.000000	0.000000	0.000000	0.000000	1
38.668089	6.315140	0.000000	0.005187	0.008489	0.000000	0.009948	-1.717618	0.000000	0.000000	0.000000	0.000000	0.000000	1
41.777081	6.315140	0.000000	0.005327	0.003901	0.000000	0.006603	-2.029347	0.000000	0.000000	0.000000	0.000000	0.000000	1
44.886073	6.315140	0.000000	0.004572	-0.005694	0.000000	0.007303	-1.163043	0.000000	0.000000	0.000000	0.000000	0.000000	1
47.995066	6.315140	0.000000	0.004325	-0.004055	0.000000	0.005929	0.166721	0.000000	0.000000	0.000000	0.000000	0.000000	1
51.104058	6.315140	0.000000	0.002669	-0.000316	0.000000	0.002688	-0.254140	0.000000	0.000000	0.000000	0.000000	0.000000	1
54.213050	6.315140	0.000000	0.004935	-0.001383	0.000000	0.005125	-1.008498	0.000000	0.000000	0.000000	0.000000	0.000000	1
57.322042	6.315140	0.000000	0.005992	-0.002020	0.000000	0.006324	-1.007612	0.000000	0.000000	0.000000	0.000000	0.000000	1
60.431034	6.315140	0.000000	0.018191	0.011663	0.000000	0.021609	-2.647287	0.000000	0.000000	0.000000	0.000000	0.000000	1
63.540026	6.315140	0.000000	0.015242	-0.002189	0.000000	0.015398	64.022684	0.000000	0.000000	0.000000	0.000000	0.000000	1
66.649018	6.315140	0.000000	-0.294855	0.282776	0.000000	0.408536	139.539466	0.000000	0.000000	0.000000	0.000000	0.000000	2
69.758010	6.315140	0.000000	-0.548128	0.529081	0.000000	0.761821	96.584631	0.000000	0.000000	0.000000	0.000000	0.000000	1
72.867002	6.315140	0.000000	-0.469077	0.577957	0.000000	0.744357	59.004898	0.000000	0.000000	0.000000	0.000000	0.000000	1
75.975994	6.315140	0.000000	-0.340069	0.686362	0.000000	0.765989	52.726062	0.000000	0.000000	0.000000	0.000000	0.000000	1
79.084987	6.315140	0.000000	-0.316603	0.901554	0.000000	0.955529	-32.401810	0.000000	0.000000	0.000000	0.000000	0.000000	1
82.193979	6.315140	0.000000	-0.327785	0.837135	0.000000	0.899021	-170.913637	0.000000	0.000000	0.000000	0.000000	0.000000	1
85.302971	6.315140	0.000000	-0.034163	0.034000	0.000000	0.048198	-134.978449	0.000000	0.000000	0.000000	0.000000	0.000000	1
88.411963	6.315140	0.000000	-0.002032	0.016504	0.000000	0.016628	-19.867903	0.000000	0.000000	0.000000	0.000000	0.000000	1
91.520955	6.315140	0.000000	-0.017802	0.030282	0.000000	0.035127	-13.176411	0.000000	0.000000	0.000000	0.000000	0.000000	1
94.629947	6.315140	0.000000	-0.011358	0.026045	0.000000	0.028414	-10.568964	0.000000	0.000000	0.000000	0.000000	0.000000	2
97.738939	6.315140	0.000000	-0.001888	0.001162	0.000000	0.002217	-3.802649	0.000000	0.000000	0.000000	0.000000	0.000000	1
100.847931	6.315140	0.000000	-0.018943	0.011331	0.000000	0.022073	0.370264	0.000000	0.000000	0.000000	0.000000	0.000000	1
103.956923	6.315140	0.000000	-0.022661	0.012975	0.000000	0.026113	-2.217371	0.000000	0.000000	0.000000	0.000000	0.000000	1
107.065915	6.315140	0.000000	-0.014088	0.008201	0.000000	0.016301	-3.802305	0.000000	0.000000	0.000000	0.000000	0.000000	1
110.174908	6.315140	0.000000	-0.022035	-0.007086	0.000000	0.023146	-0.017723	0.000000	0.000000	0.000000	0.000000	0.000000	1
113.283900	6.315140	0.000000	-0.021875	-0.006663	0.000000	0.022867	1.789593	0.000000	0.000000	0.000000	0.000000	0.000000	1
116.392892	6.315140	0.000000	-0.005519	-0.001138	0.000000	0.005635	0.885408	0.000000	0.000000	0.000000	0.000000	0.000000	1
119.501884	6.315140	0.000000	-0.004960	-0.001764	0.000000	0.005264	1.019904	0.000000	0.000000	0.000000	0.000000	0.000000	1
122.610876	6.315140	0.000000	-0.002956	0.001208	0.000000	0.003193	0.705346	0.000000	0.000000	0.000000	0.000000	0.000000	1
125.719868	6.315140	0.000000	-0.004257	0.000203	0.000000	0.004262	-0.083340	0.000000	0.000000	0.000000	0.000000	0.000000	1
128.828860	6.315140	0.000000	-0.002756	0.000445	0.000000	0.002792	0.387222	0.000000	0.000000	0.000000	0.000000	0.000000	1
131.937852	6.315140	0.000000	-0.002543	0.004717	0.000000	0.005359	1.469977	0.000000	0.000000	0.000000	0.000000	0.000000	1
135.046844	6.315140	0.000000	-0.002804	0.004244	0.000000	0.005087	1.528718	0.000000	0.000000	0.000000	0.000000	0.000000	1
138.155836	6.315140	0.000000	-0.003341	0.003837	0.000000	0.005087	1.674369	0.000000	0.000000	0.000000	0.000000	0.000000	1
141.264829	6.315140	0.000000	-0.010095	0.009653	0.000000	0.013967	1.830686	0.000000	0.000000	0.000000	0.000000	0.000000	1
144.373821	6.315140	0.000000	-0.010153	0.010909	0.000000	0.014903	-0.143534	0.000000	0.000000	0.000000	0.000000	0.000000	1
147.482813	6.315140	0.000000	-0.004814	0.004191	0.000000	0.006383	-1.355008	0.000000	0.000000	0.000000	0.000000	0.000000	1
150.591805	6.315140	0.000000	-0.000768	0.002694	0.000000	0.002802	-0.578429	0.000000	0.000000	0.000000	0.000000	0.000000	1
153.700797	6.315140	0.000000	-0.009751	0.006406	0.000000	0.011667	-0.273473	0.000000	0.000000	0.000000	0.000000	0.000000	1
156.809789	6.315140	0.000000	-0.002394	0.003049	0.000000	0.003877	0.021600	0.000000	0.000000	0.000000	0.000000	0.000000	1
159.918781	6.315140	0.000000	-0.004099	0.003973	0.000000	0.005708	0.543345	0.000000	0.000000	0.000000	0.000000	0.000000	1
4.469176	9.424132	0.000000	0.001763	0.005182	0.000000	0.005473	0.723039	0.000000	0.000000	0.000000	0.000000	0.000000	1
7.578168	9.424132	0.000000	0.002913	0.010127	0.000000	0.010538	1.093007	0.000000	0.000000	0.000000	0.000000	0.000000	1
10.687160	9.424132	0.000000	0.007666	0.014872	0.000000	0.016732	1.804829	0.000000	0.000000	0.000000	0.000000	0.000000	1
13.796152	9.424132	0.000000	0.006155	0.018756	0.000000	0.019740	1.429930	0.000000	0.000000	0.000000	0.000000	0.000000	1
16.905145	9.424132	0.000000	0.005249	0.016083	0.000000	0.016918	-0.025782	0.000000	0.000000	0.000000	0.000000	0.000000	1
20.014137	9.424132	0.000000	0.004830	0.013642	0.000000	0.014471	-1.497982	0.000000	0.000000	0.000000	0.000000	0.000000	1
23.123129	9.424132	0.000000	0.003651	0.005176	0.000000	0.006334	-0.368211	0.000000	0.000000	0.000000	0.000000	0.000000	1
26.232121	9.424132	0.000000	0.003386	0.006830	0.000000	0.007623	3.227024	0.000000	0.000000	0.000000	0.000000	0.000000	1
29.341113	9.424132	0.000000	0.010163	0.016345	0.000000	0.019247	3.339055	0.000000	0.000000	0.000000	0.000000	0.000000	1
32.450105	9.424132	0.000000	0.011948	0.011779	0.000000	0.016778	1.431968	0.000000	0.000000	0.000000	0.000000	0.000000	1
35.559097	9.424132	0.000000	0.006206	0.010817	0.000000	0.012471	0.906118	0.000000	0.000000	0.000000	0.000000	0.000000	1
38.668089	9.424132	0.000000	0.003032	0.009699	0.000000	0.010162	0.045226	0.000000	0.000000	0.000000	0.000000	0.000000	1
41.777081	9.424132	0.000000	0.005026	0.006001	0.000000	0.007828	-1.804962	0.000000	0.000000	0.000000	0.000000	0.000000	1
44.886073	9.424132	0.000000	-0.000432	-0.000269	0.000000	0.000509	-2.194674	0.000000	0.000000	0.000000	0.000000	0.000000	1
47.995066	9.424132	0.000000	0.002217	-0.000748	0.000000	0.002340	-0.452222	0.000000	0.000000	0.000000	0.000000	0.000000	1
51.104058	9.424132	0.000000	0.002245	0.000179	0.000000	0.002252	-0.928542	0.000000	0.000000	0.000000	0.000000	0.000000	1
54.213050	9.424132	0.000000	0.006652	-0.002110	0.000000	0.006978	-1.816176	0.000000	0.000000	0.000000	0.000000	0.000000	1
57.322042	9.424132	0.000000	0.009204	-0.002148	0.000000	0.009451	0.121647	0.000000	0.000000	0.000000	0.000000	0.000000	1
60.431034	9.424132	0.000000	0.027557	0.000573	0.000000	0.027563	4.886825	0.000000	0.000000	0.000000	0.000000	0.000000	1
63.540026	9.424132	0.000000	-0.005058	0.005743	0.000000	0.007653	87.318069	0.000000	0.000000	0.000000	0.000000	0.000000	1
66.649018	9.424132	0.000000	-0.615231	0.464128	0.000000	0.770665	120.874041	0.000000	0.000000	0.000000	0.000000	0.000000	1
69.758010	9.424132	0.000000	-0.593596	0.573167	0.000000	0.825153	68.713124	0.000000	0.000000	0.000000	0.000000	0.000000	1
72.867002	9.424132	0.000000	-0.447943	0.787910	0.000000	0.906342	59.158759	0.000000	0.000000	0.000000	0.000000	0.000000	1
75.975994	9.424132	0.000000	-0.335794	1.176863	0.000000	1.223832	-16.976420	0.000000	0.000000	0.000000	0.000000	0.000000	2
79.084987	9.424132	0.000000	-0.339883	0.890953	0.000000	0.953581	-126.306064	0.000000	0.000000	0.000000	0.000000	0.000000	1
82.193979	9.424132	0.000000	-0.117115	0.190969	0.000000	0.224020	-139.033453	0.000000	0.000000	0.000000	0.000000	0.000000	2
85.302971	9.424132	0.000000	0.002690	0.029281	0.000000	0.029404	-59.113033	0.000000	0.000000	0.000000	0.000000	0.000000	1
88.411963	9.424132	0.000000	0.014872	0.035426	0.000000	0.038421	0.683069	0.000000	0.000000	0.000000	0.000000	0.000000	1
91.520955	9.424132	0.000000	0.013387	0.039136	0.000000	0.041362	-0.104606	0.000000	0.000000	0.000000	0.000000	0.000000	1
94.629947	9.424132	0.000000	-0.014386	0.012028	0.000000	0.018752	-0.642625	0.000000	0.000000	0.000000	0.000000	0.000000	1
97.738939	9.424132	0.000000	0.015311	0.022433	0.000000	0.027160	-1.854516	0.000000	0.000000	0.000000	0.000000	0.000000	1
100.847931	9.424132	0.000000	-0.003433	0.011573	0.000000	0.012071	-5.365295	0.000000	0.000000	0.000000	0.000000	0.000000	1
103.956923	9.424132	0.000000	0.032190	0.052016	0.000000	0.061171	-8.735063	0.000000	0.000000	0.000000	0.000000	0.000000	2
107.065915	9.424132	0.000000	-0.001311	0.029392	0.000000	0.029421	-11.622154	0.000000	0.000000	0.000000	0.000000	0.000000	2
110.174908	9.424132	0.000000	-0.035202	0.000268	0.000000	0.035203	-5.337906	0.000000	0.000000	0.000000	0.000000	0.000000	2
113.283900	9.424132	0.000000	-0.008038	0.001230	0.000000	0.008132	-0.883791	0.000000	0.000000	0.000000	0.000000	0.000000	1
116.392892	9.424132	0.000000	-0.006167	-0.001114	0.000000	0.006266	-0.557508	0.000000	0.000000	0.000000	0.000000	0.000000	1
119.501884	9.424132	0.000000	-0.006995	-0.004264	0.000000	0.008193	0.802995	0.000000	0.000000	0.000000	0.000000	0.000000	1
122.610876	9.424132	0.000000	-0.002406	0.001485	0.000000	0.002828	0.853346	0.000000	0.000000	0.000000	0.000000	0.000000	1
125.719868	9.424132	0.000000	0.000118	0.003081	0.000000	0.003084	-0.161705	0.000000	0.000000	0.000000	0.000000	0.000000	1
128.828860	9.424132	0.000000	0.000375	0.003130	0.000000	0.003153	0.535432	0.000000	0.000000	0.000000	0.000000	0.000000	1
131.937852	9.424132	0.000000	-0.002328	0.005606	0.000000	0.006070	2.198552	0.000000	0.000000	0.000000	0.000000	0.000000	1
135.046844	9.424132	0.000000	-0.012964	0.016503	0.000000	0.020986	1.734950	0.000000	0.000000	0.000000	0.000000	0.000000	1
138.155836	9.424132	0.000000	-0.012008	0.010577	0.000000	0.016002	0.400734	0.000000	0.000000	0.000000	0.000000	0.000000	1
141.264829	9.424132	0.000000	-0.011282	0.009857	0.000000	0.014981	-0.075583	0.000000	0.000000	0.000000	0.000000	0.000000	1
144.373821	9.424132	0.000000	-0.010302	0.009577	0.000000	0.014066	-1.225020	0.000000	0.000000	0.000000	0.000000	0.000000	1
147.482813	9.424132	0.000000	-0.000440	0.003506	0.000000	0.003534	-0.906718	0.000000	0.000000	0.000000	0.000000	0.000000	1
150.591805	9.424132	0.000000	-0.002656	0.002934	0.000000	0.003958	0.268270	0.000000	0.000000	0.000000	0.000000	0.000000	1
153.700797	9.424132	0.000000	-0.005506	0.004190	0.000000	0.006919	0.081249	0.000000	0.000000	0.000000	0.000000	0.000000	1
156.809789	9.424132	0.000000	-0.005842	0.004842	0.000000	0.007588	0.304631	0.000000	0.000000	0.000000	0.000000	0.000000	1
159.918781	9.424132	0.000000	-0.010589	0.004486	0.000000	0.011500	0.857622	0.000000	0.000000	0.000000	0.000000	0.000000	1
4.469176	12.533124	0.000000	0.004118	0.007066	0.000000	0.008178	-0.128768	0.000000	0.000000	0.000000	0.000000	0.000000	1
7.578168	12.533124	0.000000	0.003403	0.006716	0.000000	0.007529	0.808615	0.000000	0.000000	0.000000	0.000000	0.000000	1
10.687160	12.533124	0.000000	-0.003657	0.016296	0.000000	0.016701	1.293270	0.000000	0.000000	0.000000	0.000000	0.000000	1
13.796152	12.533124	0.000000	-0.004015	0.013155	0.000000	0.013754	-0.244652	0.000000	0.000000	0.000000	0.000000	0.000000	1
16.905145	12.533124	0.000000	0.002869	0.007741	0.000000	0.008256	-0.786792	0.000000	0.000000	0.000000	0.000000	0.000000	1
20.014137	12.533124	0.000000	0.005038	0.007655	0.000000	0.009165	-0.426407	0.000000	0.000000	0.000000	0.000000	0.000000	1
23.123129	12.533124	0.000000	0.002320	0.005269	0.000000	0.005757	0.226485	0.000000	0.000000	0.000000	0.000000	0.000000	1
26.232121	12.533124	0.000000	-0.003853	0.005613	0.000000	0.006808	2.296849	0.000000	0.000000	0.000000	0.000000	0.000000	1
29.341113	12.533124	0.000000	-0.006821	0.009940	0.000000	0.012055	3.007142	0.000000	0.000000	0.000000	0.000000	0.000000	1
32.450105	12.533124	0.000000	0.000813	0.012673	0.000000	0.012699	1.492645	0.000000	0.000000	0.000000	0.000000	0.000000	1
35.559097	12.533124	0.000000	0.001492	0.013188	0.000000	0.013272	-0.494390	0.000000	0.000000	0.000000	0.000000	0.000000	1
38.668089	12.533124	0.000000	-0.002310	0.009942	0.000000	0.010207	-0.558632	0.000000	0.000000	0.000000	0.000000	0.000000	1
41.777081	12.533124	0.000000	0.012836	0.014765	0.000000	0.019565	-0.635603	0.000000	0.000000	0.000000	0.000000	0.000000	1
44.886073	12.533124	0.000000	0.014724	0.016840	0.000000	0.022369	-2.574705	0.000000	0.000000	0.000000	0.000000	0.000000	1
47.995066	12.533124	0.000000	0.003388	0.008509	0.000000	0.009159	-1.374975	0.000000	0.000000	0.000000	0.000000	0.000000	1
51.104058	12.533124	0.000000	0.004008	0.008936	0.000000	0.009793	0.128930	0.000000	0.000000	0.000000	0.000000	0.000000	1
54.213050	12.533124	0.000000	0.013881	-0.003848	0.000000	0.014404	-0.857592	0.000000	0.000000	0.000000	0.000000	0.000000	1
57.322042	12.533124	0.000000	0.017648	0.001007	0.000000	0.017677	1.215562	0.000000	0.000000	0.000000	0.000000	0.000000	1
60.431034	12.533124	0.000000	0.005472	0.000306	0.000000	0.005481	9.433646	0.000000	0.000000	0.000000	0.000000	0.000000	1
63.540026	12.533124	0.000000	-0.015717	0.062197	0.000000	0.064152	90.279102	0.000000	0.000000	0.000000	0.000000	0.000000	2
66.649018	12.533124	0.000000	-0.591657	0.602416	0.000000	0.844372	89.593542	0.000000	0.000000	0.000000	0.000000	0.000000	1
69.758010	12.533124	0.000000	-0.660480	0.665541	0.000000	0.937646	50.418344	0.000000	0.000000	0.000000	0.000000	0.000000	1
72.867002	12.533124	0.000000	-0.327431	0.988842	0.000000	1.041643	55.104488	0.000000	0.000000	0.000000	0.000000	0.000000	1
75.975994	12.533124	0.000000	-0.297055	0.986217	0.000000	1.029983	-73.426121	0.000000	0.000000	0.000000	0.000000	0.000000	1
79.084987	12.533124	0.000000	-0.221642	0.359556	0.000000	0.422381	-137.017821	0.000000	0.000000	0.000000	0.000000	0.000000	1
82.193979	12.533124	0.000000	-0.113548	0.112921	0.000000	0.160139	-71.139279	0.000000	0.000000	0.000000	0.000000	0.000000	2
85.302971	12.533124	0.000000	-0.018153	0.031859	0.000000	0.036668	-20.775447	0.000000	0.000000	0.000000	0.000000	0.000000	1
88.411963	12.533124	0.000000	-0.011654	0.011013	0.000000	0.016034	2.097226	0.000000	0.000000	0.000000	0.000000	0.000000	1
91.520955	12.533124	0.000000	-0.015083	0.032341	0.000000	0.035686	4.076310	0.000000	0.000000	0.000000	0.000000	0.000000	1
94.629947	12.533124	0.000000	-0.024459	0.028382	0.000000	0.037467	5.991276	0.000000	0.000000	0.000000	0.000000	0.000000	1
97.738939	12.533124	0.000000	0.025692	0.082979	0.000000	0.086866	4.595048	0.000000	0.000000	0.000000	0.000000	0.000000	1
100.847931	12.533124	0.000000	0.030456	0.089337	0.000000	0.094386	-3.446163	0.000000	0.000000	0.000000	0.000000	0.000000	1
103.956923	12.533124	0.000000	0.032738	0.060329	0.000000	0.068639	-7.364136	0.000000	0.000000	0.000000	0.000000	0.000000	2
107.065915	12.533124	0.000000	0.023468	0.037324	0.000000	0.044089	-11.331760	0.000000	0.000000	0.000000	0.000000	0.000000	2
110.174908	12.533124	0.000000	-0.032254	0.015115	0.000000	0.035620	-9.021715	0.000000	0.000000	0.000000	0.000000	0.000000	2
113.283900	12.533124	0.000000	-0.008504	0.006236	0.000000	0.010546	-2.830489	0.000000	0.000000	0.000000	0.000000	0.000000	1
116.392892	12.533124	0.000000	-0.009372	0.002619	0.000000	0.009731	-0.475336	0.000000	0.000000	0.000000	0.000000	0.000000	1
119.501884	12.533124	0.000000	-0.009068	0.000018	0.000000	0.009068	0.310265	0.000000	0.000000	0.000000	0.000000	0.000000	1
122.610876	12.533124	0.000000	-0.003000	0.002935	0.000000	0.004197	1.286633	0.000000	0.000000	0.000000	0.000000	0.000000	1
125.719868	12.533124	0.000000	-0.000632	0.004013	0.000000	0.004063	1.519587	0.000000	0.000000	0.000000	0.000000	0.000000	1
128.828860	12.533124	0.000000	-0.001283	0.005065	0.000000	0.005225	2.093431	0.000000	0.000000	0.000000	0.000000	0.000000	1
131.937852	12.533124	0.000000	-0.007170	0.009710	0.000000	0.012071	2.348911	0.000000	0.000000	0.000000	0.000000	0.000000	1
135.046844	12.533124	0.000000	-0.011188	0.013037	0.000000	0.017179	0.768844	0.000000	0.000000	0.000000	0.000000	0.000000	1
138.155836	12.533124	0.000000	-0.012577	0.013168	0.000000	0.018209	-1.534134	0.000000	0.000000	0.000000	0.000000	0.000000	1
141.264829	12.533124	0.000000	-0.007400	0.006724	0.000000	0.009998	-1.792251	0.000000	0.000000	0.000000	0.000000	0.000000	1
144.373821	12.533124	0.000000	-0.006045	0.006475	0.000000	0.008858	-0.804872	0.000000	0.000000	0.000000	0.000000	0.000000	1
147.482813	12.533124	0.000000	-0.002687	0.007456	0.000000	0.007926	-0.071147	0.000000	0.000000	0.000000	0.000000	0.000000	1
150.591805	12.533124	0.000000	-0.006035	0.008521	0.000000	0.010441	-0.158199	0.000000	0.000000	0.000000	0.000000	0.000000	1
153.700797	12.533124	0.000000	-0.005846	0.006044	0.000000	0.008408	-0.403745	0.000000	0.000000	0.000000	0.000000	0.000000	1
156.809789	12.533124	0.000000	-0.006353	0.004954	0.000000	0.008056	-0.329409	0.000000	0.000000	0.000000	0.000000	0.000000	1
159.918781	12.533124	0.000000	-0.009957	0.005592	0.000000	0.011420	-0.482025	0.000000	0.000000	0.000000	0.000000	0.000000	1
4.469176	15.642117	0.000000	0.004711	0.007577	0.000000	0.008922	0.417739	0.000000	0.000000	0.000000	0.000000	0.000000	1
7.578168	15.642117	0.000000	0.009603	0.011369	0.000000	0.014882	0.291262	0.000000	0.000000	0.000000	0.000000	0.000000	1
10.687160	15.642117	0.000000	0.006194	0.014395	0.000000	0.015671	0.160883	0.000000	0.000000	0.000000	0.000000	0.000000	1
13.796152	15.642117	0.000000	0.002476	0.022096	0.000000	0.022235	-1.413949	0.000000	0.000000	0.000000	0.000000	0.000000	1
16.905145	15.642117	0.000000	0.001348	0.011479	0.000000	0.011558	-1.866314	0.000000	0.000000	0.000000	0.000000	0.000000	1
20.014137	15.642117	0.000000	0.001863	0.004193	0.000000	0.004588	-0.438125	0.000000	0.000000	0.000000	0.000000	0.000000	1
23.123129	15.642117	0.000000	0.001764	0.005003	0.000000	0.005305	0.117353	0.000000	0.000000	0.000000	0.000000	0.000000	1
26.232121	15.642117	0.000000	-0.003307	0.007289	0.000000	0.008005	0.301413	0.000000	0.000000	0.000000	0.000000	0.000000	1
29.341113	15.642117	0.000000	-0.005956	0.010227	0.000000	0.011835	0.460932	0.000000	0.000000	0.000000	0.000000	0.000000	1
32.450105	15.642117	0.000000	0.001097	0.013230	0.000000	0.013276	0.020974	0.000000	0.000000	0.000000	0.000000	0.000000	1
35.559097	15.642117	0.000000	0.009406	0.011764	0.000000	0.015062	-1.232189	0.000000	0.000000	0.000000	0.000000	0.000000	1
38.668089	15.642117	0.000000	0.004759	0.005752	0.000000	0.007466	0.523581	0.000000	0.000000	0.000000	0.000000	0.000000	1
41.777081	15.642117	0.000000	0.014440	0.015597	0.000000	0.021255	3.781766	0.000000	0.000000	0.000000	0.000000	0.000000	1
44.886073	15.642117	0.000000	0.018381	0.025483	0.000000	0.031421	2.686563	0.000000	0.000000	0.000000	0.000000	0.000000	1
47.995066	15.642117	0.000000	0.013719	0.029364	0.000000	0.032411	1.742588	0.000000	0.000000	0.000000	0.000000	0.000000	1
51.104058	15.642117	0.000000	-0.006170	0.040048	0.000000	0.040521	1.523219	0.000000	0.000000	0.000000	0.000000	0.000000	1
54.213050	15.642117	0.000000	-0.005854	0.040812	0.000000	0.041230	-1.535554	0.000000	0.000000	0.000000	0.000000	0.000000	1
57.322042	15.642117	0.000000	0.013117	0.007389	0.000000	0.015054	7.927885	0.000000	0.000000	0.000000	0.000000	0.000000	1
60.431034	15.642117	0.000000	0.035224	0.063042	0.000000	0.072215	25.974510	0.000000	0.000000	0.000000	0.000000	0.000000	1
63.540026	15.642117	0.000000	-0.038113	0.097940	0.000000	0.105095	105.392252	0.000000	0.000000	0.000000	0.000000	0.000000	2
66.649018	15.642117	0.000000	-0.556330	0.641144	0.000000	0.848863	79.302357	0.000000	0.000000	0.000000	0.000000	0.000000	1
69.758010	15.642117	0.000000	-0.660581	0.569961	0.000000	0.872481	14.763682	0.000000	0.000000	0.000000	0.000000	0.000000	1
72.867002	15.642117	0.000000	-0.538547	0.632843	0.000000	0.830978	18.284991	0.000000	0.000000	0.000000	0.000000	0.000000	1
75.975994	15.642117	0.000000	-0.239835	0.543238	0.000000	0.593826	-65.645309	0.000000	0.000000	0.000000	0.000000	0.000000	2
79.084987	15.642117	0.000000	-0.170736	0.232579	0.000000	0.288520	-70.522377	0.000000	0.000000	0.000000	0.000000	0.000000	1
82.193979	15.642117	0.000000	-0.163387	0.255798	0.000000	0.303526	-38.973995	0.000000	0.000000	0.000000	0.000000	0.000000	1
85.302971	15.642117	0.000000	-0.002952	0.051231	0.000000	0.051316	-32.249449	0.000000	0.000000	0.000000	0.000000	0.000000	1
88.411963	15.642117	0.000000	0.005713	0.031716	0.000000	0.032227	-2.493771	0.000000	0.000000	0.000000	0.000000	0.000000	1
91.520955	15.642117	0.000000	-0.004770	0.050456	0.000000	0.050681	3.633542	0.000000	0.000000	0.000000	0.000000	0.000000	1
94.629947	15.642117	0.000000	-0.012322	0.078355	0.000000	0.079318	5.236792	0.000000	0.000000	0.000000	0.000000	0.000000	1
97.738939	15.642117	0.000000	0.005121	0.090678	0.000000	0.090823	4.258034	0.000000	0.000000	0.000000	0.000000	0.000000	1
100.847931	15.642117	0.000000	0.016250	0.072553	0.000000	0.074350	-1.704473	0.000000	0.000000	0.000000	0.000000	0.000000	1
103.956923	15.642117	0.000000	0.032921	0.050590	0.000000	0.060358	-6.915226	0.000000	0.000000	0.000000	0.000000	0.000000	2
107.065915	15.642117	0.000000	0.035568	0.033623	0.000000	0.048945	-11.899823	0.000000	0.000000	0.000000	0.000000	0.000000	1
110.174908	15.642117	0.000000	0.005478	0.026092	0.000000	0.026660	-12.783328	0.000000	0.000000	0.000000	0.000000	0.000000	1
113.283900	15.642117	0.000000	-0.012832	0.013017	0.000000	0.018278	-5.669474	0.000000	0.000000	0.000000	0.000000	0.000000	1
116.392892	15.642117	0.000000	-0.010511	0.008812	0.000000	0.013716	-0.976916	0.000000	0.000000	0.000000	0.000000	0.000000	1
119.501884	15.642117	0.000000	-0.006293	0.006344	0.000000	0.008936	1.074906	0.000000	0.000000	0.000000	0.000000	0.000000	1