TITLE = "PIV Result  213 "
VARIABLES = "X (mm)""Y (mm)""Z (mm)""U (m/s)""V (m/s)""W (m/s)""Speed (m/s)""Vorticity""U-std""V-std""W-std""Speed-std""Vorticity-std""Flag"
ZONE T="ZONE 213 "
I= 51 , J= 16 , K= 1 , F=POINT
DT=(DOUBLE DOUBLE DOUBLE DOUBLE DOUBLE DOUBLE DOUBLE DOUBLE DOUBLE DOUBLE DOUBLE DOUBLE DOUBLE DOUBLE)
4.469176	3.206148	0.000000	0.003113	0.006426	0.000000	0.007141	0.073284	0.000000	0.000000	0.000000	0.000000	0.000000	1
7.578168	3.206148	0.000000	-0.001228	0.007585	0.000000	0.007684	-0.479321	0.000000	0.000000	0.000000	0.000000	0.000000	1
10.687160	3.206148	0.000000	-0.001600	0.007492	0.000000	0.007661	-0.369292	0.000000	0.000000	0.000000	0.000000	0.000000	1
13.796152	3.206148	0.000000	0.002964	0.007898	0.000000	0.008436	-0.318095	0.000000	0.000000	0.000000	0.000000	0.000000	1
16.905145	3.206148	0.000000	-0.003371	0.007593	0.000000	0.008308	-1.632621	0.000000	0.000000	0.000000	0.000000	0.000000	1
20.014137	3.206148	0.000000	-0.004218	0.006644	0.000000	0.007870	-2.332639	0.000000	0.000000	0.000000	0.000000	0.000000	1
23.123129	3.206148	0.000000	-0.000438	0.003157	0.000000	0.003187	-1.156409	0.000000	0.000000	0.000000	0.000000	0.000000	1
26.232121	3.206148	0.000000	-0.008907	0.012071	0.000000	0.015001	-0.253365	0.000000	0.000000	0.000000	0.000000	0.000000	1
29.341113	3.206148	0.000000	-0.007206	0.012935	0.000000	0.014807	-0.312295	0.000000	0.000000	0.000000	0.000000	0.000000	1
32.450105	3.206148	0.000000	-0.002559	0.012831	0.000000	0.013083	-0.723852	0.000000	0.000000	0.000000	0.000000	0.000000	1
35.559097	3.206148	0.000000	0.003571	0.001104	0.000000	0.003738	-0.815288	0.000000	0.000000	0.000000	0.000000	0.000000	1
38.668089	3.206148	0.000000	0.002130	0.001892	0.000000	0.002849	-1.012753	0.000000	0.000000	0.000000	0.000000	0.000000	1
41.777081	3.206148	0.000000	-0.000503	0.002151	0.000000	0.002209	-1.182649	0.000000	0.000000	0.000000	0.000000	0.000000	1
44.886073	3.206148	0.000000	-0.003294	0.001469	0.000000	0.003607	-0.981846	0.000000	0.000000	0.000000	0.000000	0.000000	1
47.995066	3.206148	0.000000	-0.001246	0.001252	0.000000	0.001766	-1.281096	0.000000	0.000000	0.000000	0.000000	0.000000	1
51.104058	3.206148	0.000000	0.004625	0.000625	0.000000	0.004667	16.953548	0.000000	0.000000	0.000000	0.000000	0.000000	1
54.213050	3.206148	0.000000	0.000652	0.000084	0.000000	0.000657	38.805207	0.000000	0.000000	0.000000	0.000000	0.000000	1
57.322042	3.206148	0.000000	-0.089516	0.001821	0.000000	0.089535	25.051037	0.000000	0.000000	0.000000	0.000000	0.000000	2
60.431034	3.206148	0.000000	-0.112198	0.000297	0.000000	0.112198	13.368378	0.000000	0.000000	0.000000	0.000000	0.000000	2
63.540026	3.206148	0.000000	-0.076799	0.000994	0.000000	0.076805	29.107910	0.000000	0.000000	0.000000	0.000000	0.000000	1
66.649018	3.206148	0.000000	-0.123595	0.008040	0.000000	0.123856	43.595492	0.000000	0.000000	0.000000	0.000000	0.000000	2
69.758010	3.206148	0.000000	-0.267738	0.043667	0.000000	0.271276	88.538158	0.000000	0.000000	0.000000	0.000000	0.000000	2
72.867002	3.206148	0.000000	-0.578830	0.368308	0.000000	0.686072	116.485962	0.000000	0.000000	0.000000	0.000000	0.000000	2
75.975994	3.206148	0.000000	-0.858905	0.770971	0.000000	1.154172	45.073278	0.000000	0.000000	0.000000	0.000000	0.000000	1
79.084987	3.206148	0.000000	-0.765062	0.953282	0.000000	1.222320	-25.950701	0.000000	0.000000	0.000000	0.000000	0.000000	1
82.193979	3.206148	0.000000	-0.498497	1.182111	0.000000	1.282921	-138.731351	0.000000	0.000000	0.000000	0.000000	0.000000	1
85.302971	3.206148	0.000000	-0.142583	0.478371	0.000000	0.499168	-168.668813	0.000000	0.000000	0.000000	0.000000	0.000000	2
88.411963	3.206148	0.000000	-0.010589	0.127794	0.000000	0.128232	-60.413980	0.000000	0.000000	0.000000	0.000000	0.000000	2
91.520955	3.206148	0.000000	-0.017680	0.035726	0.000000	0.039861	-11.767227	0.000000	0.000000	0.000000	0.000000	0.000000	2
94.629947	3.206148	0.000000	-0.026701	0.027821	0.000000	0.038562	-4.252223	0.000000	0.000000	0.000000	0.000000	0.000000	1
97.738939	3.206148	0.000000	-0.010965	0.004839	0.000000	0.011985	-4.270781	0.000000	0.000000	0.000000	0.000000	0.000000	1
100.847931	3.206148	0.000000	-0.002897	-0.001373	0.000000	0.003206	0.317782	0.000000	0.000000	0.000000	0.000000	0.000000	1
103.956923	3.206148	0.000000	-0.001945	-0.000554	0.000000	0.002022	1.729471	0.000000	0.000000	0.000000	0.000000	0.000000	1
107.065915	3.206148	0.000000	0.000816	0.000153	0.000000	0.000831	1.512410	0.000000	0.000000	0.000000	0.000000	0.000000	1
110.174908	3.206148	0.000000	-0.000121	0.000098	0.000000	0.000156	0.970773	0.000000	0.000000	0.000000	0.000000	0.000000	1
113.283900	3.206148	0.000000	-0.001132	-0.000223	0.000000	0.001154	0.884149	0.000000	0.000000	0.000000	0.000000	0.000000	1
116.392892	3.206148	0.000000	-0.001321	-0.000601	0.000000	0.001451	0.981712	0.000000	0.000000	0.000000	0.000000	0.000000	1
119.501884	3.206148	0.000000	0.000434	0.000445	0.000000	0.000622	1.342609	0.000000	0.000000	0.000000	0.000000	0.000000	1
122.610876	3.206148	0.000000	-0.000809	0.000326	0.000000	0.000872	1.228818	0.000000	0.000000	0.000000	0.000000	0.000000	1
125.719868	3.206148	0.000000	-0.000337	-0.000246	0.000000	0.000417	0.539521	0.000000	0.000000	0.000000	0.000000	0.000000	1
128.828860	3.206148	0.000000	0.001036	-0.000451	0.000000	0.001130	-0.448959	0.000000	0.000000	0.000000	0.000000	0.000000	1
131.937852	3.206148	0.000000	0.000705	-0.000921	0.000000	0.001159	0.260379	0.000000	0.000000	0.000000	0.000000	0.000000	1
135.046844	3.206148	0.000000	-0.001107	0.005908	0.000000	0.006011	1.888876	0.000000	0.000000	0.000000	0.000000	0.000000	1
138.155836	3.206148	0.000000	0.006119	0.012907	0.000000	0.014284	1.408661	0.000000	0.000000	0.000000	0.000000	0.000000	1
141.264829	3.206148	0.000000	0.004432	0.013912	0.000000	0.014601	-1.402628	0.000000	0.000000	0.000000	0.000000	0.000000	1
144.373821	3.206148	0.000000	-0.002909	0.005641	0.000000	0.006347	-1.886760	0.000000	0.000000	0.000000	0.000000	0.000000	1
147.482813	3.206148	0.000000	0.000679	0.003005	0.000000	0.003081	0.278783	0.000000	0.000000	0.000000	0.000000	0.000000	1
150.591805	3.206148	0.000000	-0.003480	0.005210	0.000000	0.006265	-0.375620	0.000000	0.000000	0.000000	0.000000	0.000000	1
153.700797	3.206148	0.000000	-0.005424	0.006123	0.000000	0.008180	-1.873671	0.000000	0.000000	0.000000	0.000000	0.000000	1
156.809789	3.206148	0.000000	-0.006284	0.006477	0.000000	0.009024	-0.932801	0.000000	0.000000	0.000000	0.000000	0.000000	1
159.918781	3.206148	0.000000	-0.006341	0.006434	0.000000	0.009034	0.114305	0.000000	0.000000	0.000000	0.000000	0.000000	1
4.469176	6.315140	0.000000	0.000644	0.008320	0.000000	0.008344	-0.199315	0.000000	0.000000	0.000000	0.000000	0.000000	1
7.578168	6.315140	0.000000	0.000965	0.007340	0.000000	0.007403	-0.423055	0.000000	0.000000	0.000000	0.000000	0.000000	1
10.687160	6.315140	0.000000	0.001855	0.006663	0.000000	0.006916	0.373538	0.000000	0.000000	0.000000	0.000000	0.000000	1
13.796152	6.315140	0.000000	0.004569	0.013141	0.000000	0.013912	0.682859	0.000000	0.000000	0.000000	0.000000	0.000000	1
16.905145	6.315140	0.000000	0.000897	0.013539	0.000000	0.013568	-1.087039	0.000000	0.000000	0.000000	0.000000	0.000000	1
20.014137	6.315140	0.000000	-0.000383	0.008067	0.000000	0.008076	-1.756426	0.000000	0.000000	0.000000	0.000000	0.000000	1
23.123129	6.315140	0.000000	0.008133	0.009476	0.000000	0.012488	-1.385664	0.000000	0.000000	0.000000	0.000000	0.000000	1
26.232121	6.315140	0.000000	-0.005007	0.013138	0.000000	0.014059	-1.500381	0.000000	0.000000	0.000000	0.000000	0.000000	1
29.341113	6.315140	0.000000	-0.006052	0.014072	0.000000	0.015319	-0.982833	0.000000	0.000000	0.000000	0.000000	0.000000	1
32.450105	6.315140	0.000000	-0.002756	0.014504	0.000000	0.014764	-1.226820	0.000000	0.000000	0.000000	0.000000	0.000000	1
35.559097	6.315140	0.000000	-0.002841	0.011248	0.000000	0.011601	-1.601236	0.000000	0.000000	0.000000	0.000000	0.000000	1
38.668089	6.315140	0.000000	0.002940	0.003092	0.000000	0.004267	-1.299070	0.000000	0.000000	0.000000	0.000000	0.000000	1
41.777081	6.315140	0.000000	0.000552	-0.006130	0.000000	0.006155	-1.089982	0.000000	0.000000	0.000000	0.000000	0.000000	1
44.886073	6.315140	0.000000	-0.000799	-0.005777	0.000000	0.005832	-0.735278	0.000000	0.000000	0.000000	0.000000	0.000000	1
47.995066	6.315140	0.000000	0.002702	-0.007450	0.000000	0.007925	1.818835	0.000000	0.000000	0.000000	0.000000	0.000000	1
51.104058	6.315140	0.000000	0.005535	-0.009565	0.000000	0.011051	23.165335	0.000000	0.000000	0.000000	0.000000	0.000000	1
54.213050	6.315140	0.000000	-0.136999	0.072669	0.000000	0.155079	44.977691	0.000000	0.000000	0.000000	0.000000	0.000000	2
57.322042	6.315140	0.000000	-0.187347	0.099598	0.000000	0.212176	39.777632	0.000000	0.000000	0.000000	0.000000	0.000000	2
60.431034	6.315140	0.000000	-0.134879	0.027996	0.000000	0.137754	34.647872	0.000000	0.000000	0.000000	0.000000	0.000000	1
63.540026	6.315140	0.000000	-0.161835	0.038443	0.000000	0.166338	39.409723	0.000000	0.000000	0.000000	0.000000	0.000000	2
66.649018	6.315140	0.000000	-0.233787	0.079294	0.000000	0.246868	60.533959	0.000000	0.000000	0.000000	0.000000	0.000000	1
69.758010	6.315140	0.000000	-0.339139	0.161103	0.000000	0.375459	108.073337	0.000000	0.000000	0.000000	0.000000	0.000000	1
72.867002	6.315140	0.000000	-0.570408	0.575513	0.000000	0.810297	92.103483	0.000000	0.000000	0.000000	0.000000	0.000000	2
75.975994	6.315140	0.000000	-0.818520	0.868245	0.000000	1.193241	-11.907773	0.000000	0.000000	0.000000	0.000000	0.000000	1
79.084987	6.315140	0.000000	-0.644989	0.760336	0.000000	0.997056	-76.246027	0.000000	0.000000	0.000000	0.000000	0.000000	1
82.193979	6.315140	0.000000	-0.270847	0.642563	0.000000	0.697313	-135.766945	0.000000	0.000000	0.000000	0.000000	0.000000	1
85.302971	6.315140	0.000000	-0.023759	0.204181	0.000000	0.205559	-126.164689	0.000000	0.000000	0.000000	0.000000	0.000000	2
88.411963	6.315140	0.000000	-0.012387	0.062816	0.000000	0.064025	-38.320715	0.000000	0.000000	0.000000	0.000000	0.000000	2
91.520955	6.315140	0.000000	-0.003498	0.024927	0.000000	0.025171	-10.340898	0.000000	0.000000	0.000000	0.000000	0.000000	1
94.629947	6.315140	0.000000	-0.026087	0.043630	0.000000	0.050834	-11.077520	0.000000	0.000000	0.000000	0.000000	0.000000	1
97.738939	6.315140	0.000000	-0.026891	0.002418	0.000000	0.027000	-11.656439	0.000000	0.000000	0.000000	0.000000	0.000000	2
100.847931	6.315140	0.000000	0.002369	-0.006259	0.000000	0.006692	-3.004244	0.000000	0.000000	0.000000	0.000000	0.000000	1
103.956923	6.315140	0.000000	-0.007569	0.000743	0.000000	0.007606	-0.047644	0.000000	0.000000	0.000000	0.000000	0.000000	1
107.065915	6.315140	0.000000	-0.004608	0.002315	0.000000	0.005157	-1.190643	0.000000	0.000000	0.000000	0.000000	0.000000	1
110.174908	6.315140	0.000000	-0.004155	-0.001609	0.000000	0.004456	-0.495166	0.000000	0.000000	0.000000	0.000000	0.000000	1
113.283900	6.315140	0.000000	-0.003854	-0.001453	0.000000	0.004119	0.353312	0.000000	0.000000	0.000000	0.000000	0.000000	1
116.392892	6.315140	0.000000	-0.003095	-0.001168	0.000000	0.003308	0.105543	0.000000	0.000000	0.000000	0.000000	0.000000	1
119.501884	6.315140	0.000000	-0.005058	-0.001676	0.000000	0.005329	0.253980	0.000000	0.000000	0.000000	0.000000	0.000000	1
122.610876	6.315140	0.000000	-0.003362	-0.000711	0.000000	0.003436	0.466269	0.000000	0.000000	0.000000	0.000000	0.000000	1
125.719868	6.315140	0.000000	-0.001145	0.002890	0.000000	0.003109	0.519416	0.000000	0.000000	0.000000	0.000000	0.000000	1
128.828860	6.315140	0.000000	0.002752	0.004324	0.000000	0.005125	0.658547	0.000000	0.000000	0.000000	0.000000	0.000000	1
131.937852	6.315140	0.000000	0.003221	0.003122	0.000000	0.004485	1.651105	0.000000	0.000000	0.000000	0.000000	0.000000	1
135.046844	6.315140	0.000000	-0.001332	0.007724	0.000000	0.007838	2.792746	0.000000	0.000000	0.000000	0.000000	0.000000	1
138.155836	6.315140	0.000000	0.004573	0.013305	0.000000	0.014069	3.169601	0.000000	0.000000	0.000000	0.000000	0.000000	1
141.264829	6.315140	0.000000	0.004526	0.014016	0.000000	0.014729	0.439475	0.000000	0.000000	0.000000	0.000000	0.000000	1
144.373821	6.315140	0.000000	-0.001766	0.002911	0.000000	0.003405	-1.116755	0.000000	0.000000	0.000000	0.000000	0.000000	1
147.482813	6.315140	0.000000	-0.001233	0.001926	0.000000	0.002287	1.084994	0.000000	0.000000	0.000000	0.000000	0.000000	1
150.591805	6.315140	0.000000	0.000836	0.008444	0.000000	0.008485	1.105811	0.000000	0.000000	0.000000	0.000000	0.000000	1
153.700797	6.315140	0.000000	0.003756	0.010035	0.000000	0.010715	-0.320384	0.000000	0.000000	0.000000	0.000000	0.000000	1
156.809789	6.315140	0.000000	-0.006462	0.006372	0.000000	0.009075	-0.153625	0.000000	0.000000	0.000000	0.000000	0.000000	1
159.918781	6.315140	0.000000	-0.006737	0.006552	0.000000	0.009397	0.395134	0.000000	0.000000	0.000000	0.000000	0.000000	1
4.469176	9.424132	0.000000	0.000403	0.011913	0.000000	0.011920	-0.588034	0.000000	0.000000	0.000000	0.000000	0.000000	1
7.578168	9.424132	0.000000	0.001009	0.009762	0.000000	0.009814	-0.523401	0.000000	0.000000	0.000000	0.000000	0.000000	1
10.687160	9.424132	0.000000	-0.000443	0.006558	0.000000	0.006573	0.490028	0.000000	0.000000	0.000000	0.000000	0.000000	1
13.796152	9.424132	0.000000	-0.000980	0.007744	0.000000	0.007806	1.184649	0.000000	0.000000	0.000000	0.000000	0.000000	1
16.905145	9.424132	0.000000	0.002174	0.008503	0.000000	0.008777	-0.109618	0.000000	0.000000	0.000000	0.000000	0.000000	1
20.014137	9.424132	0.000000	0.002431	0.005904	0.000000	0.006385	0.110175	0.000000	0.000000	0.000000	0.000000	0.000000	1
23.123129	9.424132	0.000000	0.014776	0.011439	0.000000	0.018686	0.578530	0.000000	0.000000	0.000000	0.000000	0.000000	1
26.232121	9.424132	0.000000	0.005185	0.007042	0.000000	0.008745	-0.392810	0.000000	0.000000	0.000000	0.000000	0.000000	1
29.341113	9.424132	0.000000	0.002245	0.007999	0.000000	0.008308	0.244700	0.000000	0.000000	0.000000	0.000000	0.000000	1
32.450105	9.424132	0.000000	0.001141	0.015797	0.000000	0.015838	0.224675	0.000000	0.000000	0.000000	0.000000	0.000000	1
35.559097	9.424132	0.000000	0.001722	0.009965	0.000000	0.010113	-1.452245	0.000000	0.000000	0.000000	0.000000	0.000000	1
38.668089	9.424132	0.000000	0.000464	0.008069	0.000000	0.008082	-1.927679	0.000000	0.000000	0.000000	0.000000	0.000000	1
41.777081	9.424132	0.000000	-0.000913	0.005774	0.000000	0.005845	-1.125420	0.000000	0.000000	0.000000	0.000000	0.000000	1
44.886073	9.424132	0.000000	0.000968	0.000897	0.000000	0.001320	-0.202287	0.000000	0.000000	0.000000	0.000000	0.000000	1
47.995066	9.424132	0.000000	-0.004217	-0.003834	0.000000	0.005699	8.564408	0.000000	0.000000	0.000000	0.000000	0.000000	1
51.104058	9.424132	0.000000	-0.031315	0.016934	0.000000	0.035600	36.416643	0.000000	0.000000	0.000000	0.000000	0.000000	2
54.213050	9.424132	0.000000	-0.220936	0.116825	0.000000	0.249921	52.974715	0.000000	0.000000	0.000000	0.000000	0.000000	2
57.322042	9.424132	0.000000	-0.394954	0.131543	0.000000	0.416284	43.991594	0.000000	0.000000	0.000000	0.000000	0.000000	2
60.431034	9.424132	0.000000	-0.344283	0.130758	0.000000	0.368278	45.720255	0.000000	0.000000	0.000000	0.000000	0.000000	2
63.540026	9.424132	0.000000	-0.262498	0.161132	0.000000	0.308008	61.203299	0.000000	0.000000	0.000000	0.000000	0.000000	1
66.649018	9.424132	0.000000	-0.370219	0.150510	0.000000	0.399644	90.376364	0.000000	0.000000	0.000000	0.000000	0.000000	1
69.758010	9.424132	0.000000	-0.607501	0.360031	0.000000	0.706173	120.808783	0.000000	0.000000	0.000000	0.000000	0.000000	2
72.867002	9.424132	0.000000	-0.481332	0.657151	0.000000	0.814572	59.260571	0.000000	0.000000	0.000000	0.000000	0.000000	1
75.975994	9.424132	0.000000	-0.524893	0.698484	0.000000	0.873724	-67.350778	0.000000	0.000000	0.000000	0.000000	0.000000	1
79.084987	9.424132	0.000000	-0.423697	0.513249	0.000000	0.665540	-124.587267	0.000000	0.000000	0.000000	0.000000	0.000000	1
82.193979	9.424132	0.000000	-0.081438	0.276118	0.000000	0.287877	-111.123392	0.000000	0.000000	0.000000	0.000000	0.000000	2
85.302971	9.424132	0.000000	-0.020085	0.021655	0.000000	0.029536	-53.103650	0.000000	0.000000	0.000000	0.000000	0.000000	1
88.411963	9.424132	0.000000	-0.008893	0.015713	0.000000	0.018055	-5.145969	0.000000	0.000000	0.000000	0.000000	0.000000	1
91.520955	9.424132	0.000000	0.009943	0.023207	0.000000	0.025247	-3.032237	0.000000	0.000000	0.000000	0.000000	0.000000	1
94.629947	9.424132	0.000000	0.023286	0.003787	0.000000	0.023592	-8.957167	0.000000	0.000000	0.000000	0.000000	0.000000	1
97.738939	9.424132	0.000000	0.028528	-0.009316	0.000000	0.030010	-8.500394	0.000000	0.000000	0.000000	0.000000	0.000000	1
100.847931	9.424132	0.000000	0.021436	-0.003853	0.000000	0.021779	-0.687964	0.000000	0.000000	0.000000	0.000000	0.000000	1
103.956923	9.424132	0.000000	0.004978	0.019786	0.000000	0.020402	1.008548	0.000000	0.000000	0.000000	0.000000	0.000000	1
107.065915	9.424132	0.000000	0.004292	0.017943	0.000000	0.018450	-2.993011	0.000000	0.000000	0.000000	0.000000	0.000000	1
110.174908	9.424132	0.000000	-0.005527	0.002694	0.000000	0.006148	-3.233405	0.000000	0.000000	0.000000	0.000000	0.000000	1
113.283900	9.424132	0.000000	-0.004934	0.002400	0.000000	0.005487	-1.126900	0.000000	0.000000	0.000000	0.000000	0.000000	1
116.392892	9.424132	0.000000	-0.002108	-0.002499	0.000000	0.003269	0.137976	0.000000	0.000000	0.000000	0.000000	0.000000	1
119.501884	9.424132	0.000000	0.001337	0.000330	0.000000	0.001377	0.587696	0.000000	0.000000	0.000000	0.000000	0.000000	1
122.610876	9.424132	0.000000	-0.000451	0.003352	0.000000	0.003382	0.070809	0.000000	0.000000	0.000000	0.000000	0.000000	1
125.719868	9.424132	0.000000	-0.000770	0.004670	0.000000	0.004733	0.069471	0.000000	0.000000	0.000000	0.000000	0.000000	1
128.828860	9.424132	0.000000	0.000159	0.005594	0.000000	0.005596	1.675550	0.000000	0.000000	0.000000	0.000000	0.000000	1
131.937852	9.424132	0.000000	-0.007687	0.010682	0.000000	0.013160	2.882685	0.000000	0.000000	0.000000	0.000000	0.000000	1
135.046844	9.424132	0.000000	-0.008937	0.008008	0.000000	0.012000	3.180007	0.000000	0.000000	0.000000	0.000000	0.000000	1
138.155836	9.424132	0.000000	-0.008190	0.007589	0.000000	0.011166	3.907049	0.000000	0.000000	0.000000	0.000000	0.000000	1
141.264829	9.424132	0.000000	-0.011601	0.013773	0.000000	0.018008	1.398783	0.000000	0.000000	0.000000	0.000000	0.000000	1
144.373821	9.424132	0.000000	-0.000742	0.002363	0.000000	0.002477	-0.465229	0.000000	0.000000	0.000000	0.000000	0.000000	1
147.482813	9.424132	0.000000	-0.004567	0.004139	0.000000	0.006163	1.113550	0.000000	0.000000	0.000000	0.000000	0.000000	1
150.591805	9.424132	0.000000	-0.005165	0.008705	0.000000	0.010122	1.071435	0.000000	0.000000	0.000000	0.000000	0.000000	1
153.700797	9.424132	0.000000	-0.003090	0.006024	0.000000	0.006770	0.423375	0.000000	0.000000	0.000000	0.000000	0.000000	1
156.809789	9.424132	0.000000	-0.006621	0.006258	0.000000	0.009111	0.696605	0.000000	0.000000	0.000000	0.000000	0.000000	1
159.918781	9.424132	0.000000	-0.008222	0.008637	0.000000	0.011925	0.956511	0.000000	0.000000	0.000000	0.000000	0.000000	1
4.469176	12.533124	0.000000	0.001987	0.008344	0.000000	0.008577	-0.636217	0.000000	0.000000	0.000000	0.000000	0.000000	1
7.578168	12.533124	0.000000	0.000012	0.006703	0.000000	0.006703	-1.713040	0.000000	0.000000	0.000000	0.000000	0.000000	1
10.687160	12.533124	0.000000	-0.001444	0.003831	0.000000	0.004094	-1.774886	0.000000	0.000000	0.000000	0.000000	0.000000	1
13.796152	12.533124	0.000000	-0.001052	0.003956	0.000000	0.004093	0.338601	0.000000	0.000000	0.000000	0.000000	0.000000	1
16.905145	12.533124	0.000000	0.001937	0.009029	0.000000	0.009235	0.607383	0.000000	0.000000	0.000000	0.000000	0.000000	1
20.014137	12.533124	0.000000	0.001666	0.008493	0.000000	0.008654	0.397369	0.000000	0.000000	0.000000	0.000000	0.000000	1
23.123129	12.533124	0.000000	-0.000858	0.006109	0.000000	0.006169	1.074145	0.000000	0.000000	0.000000	0.000000	0.000000	1
26.232121	12.533124	0.000000	0.000648	0.005255	0.000000	0.005295	1.078244	0.000000	0.000000	0.000000	0.000000	0.000000	1
29.341113	12.533124	0.000000	-0.000553	0.006441	0.000000	0.006464	1.303589	0.000000	0.000000	0.000000	0.000000	0.000000	1
32.450105	12.533124	0.000000	-0.003854	0.008021	0.000000	0.008899	1.984928	0.000000	0.000000	0.000000	0.000000	0.000000	1
35.559097	12.533124	0.000000	0.004845	0.021910	0.000000	0.022439	0.173692	0.000000	0.000000	0.000000	0.000000	0.000000	1
38.668089	12.533124	0.000000	0.004393	0.014497	0.000000	0.015148	-1.904457	0.000000	0.000000	0.000000	0.000000	0.000000	1
41.777081	12.533124	0.000000	-0.001859	0.007906	0.000000	0.008122	-1.220559	0.000000	0.000000	0.000000	0.000000	0.000000	1
44.886073	12.533124	0.000000	-0.002088	0.005059	0.000000	0.005473	-0.907820	0.000000	0.000000	0.000000	0.000000	0.000000	1
47.995066	12.533124	0.000000	-0.017392	-0.001672	0.000000	0.017472	9.646857	0.000000	0.000000	0.000000	0.000000	0.000000	1
51.104058	12.533124	0.000000	-0.086470	0.056307	0.000000	0.103187	31.919697	0.000000	0.000000	0.000000	0.000000	0.000000	2
54.213050	12.533124	0.000000	-0.373350	0.142192	0.000000	0.399510	31.004883	0.000000	0.000000	0.000000	0.000000	0.000000	2
57.322042	12.533124	0.000000	-0.479945	0.178207	0.000000	0.511962	7.979897	0.000000	0.000000	0.000000	0.000000	0.000000	1
60.431034	12.533124	0.000000	-0.473403	0.093086	0.000000	0.482468	18.461767	0.000000	0.000000	0.000000	0.000000	0.000000	1
63.540026	12.533124	0.000000	-0.362060	0.147467	0.000000	0.390940	74.931044	0.000000	0.000000	0.000000	0.000000	0.000000	2
66.649018	12.533124	0.000000	-0.649510	0.369835	0.000000	0.747423	93.227418	0.000000	0.000000	0.000000	0.000000	0.000000	1
69.758010	12.533124	0.000000	-0.686144	0.496175	0.000000	0.846749	81.466280	0.000000	0.000000	0.000000	0.000000	0.000000	1
72.867002	12.533124	0.000000	-0.513239	0.812527	0.000000	0.961048	36.782761	0.000000	0.000000	0.000000	0.000000	0.000000	1
75.975994	12.533124	0.000000	-0.386789	0.785120	0.000000	0.875225	-79.408376	0.000000	0.000000	0.000000	0.000000	0.000000	1
79.084987	12.533124	0.000000	-0.310031	0.495950	0.000000	0.584881	-139.280439	0.000000	0.000000	0.000000	0.000000	0.000000	2
82.193979	12.533124	0.000000	-0.059371	0.069924	0.000000	0.091729	-80.960814	0.000000	0.000000	0.000000	0.000000	0.000000	2
85.302971	12.533124	0.000000	-0.027540	0.025561	0.000000	0.037574	-12.243456	0.000000	0.000000	0.000000	0.000000	0.000000	1
88.411963	12.533124	0.000000	-0.035289	0.030700	0.000000	0.046774	4.170091	0.000000	0.000000	0.000000	0.000000	0.000000	1
91.520955	12.533124	0.000000	0.000076	0.027710	0.000000	0.027710	2.035432	0.000000	0.000000	0.000000	0.000000	0.000000	1
94.629947	12.533124	0.000000	0.004979	0.013633	0.000000	0.014513	1.076588	0.000000	0.000000	0.000000	0.000000	0.000000	1
97.738939	12.533124	0.000000	0.014816	-0.000105	0.000000	0.014816	3.120293	0.000000	0.000000	0.000000	0.000000	0.000000	1
100.847931	12.533124	0.000000	0.022532	0.002022	0.000000	0.022623	3.618702	0.000000	0.000000	0.000000	0.000000	0.000000	1
103.956923	12.533124	0.000000	-0.000776	0.015083	0.000000	0.015103	1.183857	0.000000	0.000000	0.000000	0.000000	0.000000	1
107.065915	12.533124	0.000000	0.006408	0.019708	0.000000	0.020723	-2.220671	0.000000	0.000000	0.000000	0.000000	0.000000	1
110.174908	12.533124	0.000000	0.006436	0.016595	0.000000	0.017799	-5.305417	0.000000	0.000000	0.000000	0.000000	0.000000	1
113.283900	12.533124	0.000000	-0.005564	0.004630	0.000000	0.007238	-3.836350	0.000000	0.000000	0.000000	0.000000	0.000000	1
116.392892	12.533124	0.000000	-0.005684	0.003096	0.000000	0.006472	0.124540	0.000000	0.000000	0.000000	0.000000	0.000000	1
119.501884	12.533124	0.000000	-0.004617	0.005981	0.000000	0.007556	1.661730	0.000000	0.000000	0.000000	0.000000	0.000000	1
122.610876	12.533124	0.000000	0.001882	0.009091	0.000000	0.009283	1.192873	0.000000	0.000000	0.000000	0.000000	0.000000	1
125.719868	12.533124	0.000000	0.000311	0.006878	0.000000	0.006885	0.258963	0.000000	0.000000	0.000000	0.000000	0.000000	1
128.828860	12.533124	0.000000	0.000374	0.007077	0.000000	0.007087	1.452976	0.000000	0.000000	0.000000	0.000000	0.000000	1
131.937852	12.533124	0.000000	-0.015634	0.014141	0.000000	0.021081	1.857936	0.000000	0.000000	0.000000	0.000000	0.000000	1
135.046844	12.533124	0.000000	-0.017063	0.014727	0.000000	0.022540	1.015964	0.000000	0.000000	0.000000	0.000000	0.000000	1
138.155836	12.533124	0.000000	-0.017752	0.016596	0.000000	0.024301	0.705207	0.000000	0.000000	0.000000	0.000000	0.000000	1
141.264829	12.533124	0.000000	-0.014832	0.014342	0.000000	0.020632	-0.638911	0.000000	0.000000	0.000000	0.000000	0.000000	1
144.373821	12.533124	0.000000	-0.006580	0.006377	0.000000	0.009163	-1.119391	0.000000	0.000000	0.000000	0.000000	0.000000	1
147.482813	12.533124	0.000000	-0.003391	0.002987	0.000000	0.004519	-0.322048	0.000000	0.000000	0.000000	0.000000	0.000000	1
150.591805	12.533124	0.000000	-0.002687	0.003205	0.000000	0.004182	-0.276386	0.000000	0.000000	0.000000	0.000000	0.000000	1
153.700797	12.533124	0.000000	-0.002075	0.002723	0.000000	0.003424	0.151013	0.000000	0.000000	0.000000	0.000000	0.000000	1
156.809789	12.533124	0.000000	-0.006404	0.005575	0.000000	0.008490	0.340729	0.000000	0.000000	0.000000	0.000000	0.000000	1
159.918781	12.533124	0.000000	-0.010640	0.008688	0.000000	0.013736	-0.033829	0.000000	0.000000	0.000000	0.000000	0.000000	1
4.469176	15.642117	0.000000	0.003314	0.008924	0.000000	0.009519	0.659543	0.000000	0.000000	0.000000	0.000000	0.000000	1
7.578168	15.642117	0.000000	0.010619	0.018966	0.000000	0.021737	-1.411317	0.000000	0.000000	0.000000	0.000000	0.000000	1
10.687160	15.642117	0.000000	0.004580	0.007853	0.000000	0.009091	-2.505739	0.000000	0.000000	0.000000	0.000000	0.000000	1
13.796152	15.642117	0.000000	0.001225	0.004195	0.000000	0.004370	0.285148	0.000000	0.000000	0.000000	0.000000	0.000000	1
16.905145	15.642117	0.000000	0.001013	0.012203	0.000000	0.012245	1.183111	0.000000	0.000000	0.000000	0.000000	0.000000	1
20.014137	15.642117	0.000000	0.000908	0.010428	0.000000	0.010467	-0.542454	0.000000	0.000000	0.000000	0.000000	0.000000	1
23.123129	15.642117	0.000000	-0.000797	0.005211	0.000000	0.005271	-1.076452	0.000000	0.000000	0.000000	0.000000	0.000000	1
26.232121	15.642117	0.000000	-0.000286	0.004339	0.000000	0.004348	-0.391421	0.000000	0.000000	0.000000	0.000000	0.000000	1
29.341113	15.642117	0.000000	-0.001200	0.004845	0.000000	0.004992	0.075075	0.000000	0.000000	0.000000	0.000000	0.000000	1
32.450105	15.642117	0.000000	-0.001741	0.007232	0.000000	0.007438	1.464469	0.000000	0.000000	0.000000	0.000000	0.000000	1
35.559097	15.642117	0.000000	0.006483	0.016863	0.000000	0.018066	1.017606	0.000000	0.000000	0.000000	0.000000	0.000000	1
38.668089	15.642117	0.000000	0.003750	0.016255	0.000000	0.016682	-1.189144	0.000000	0.000000	0.000000	0.000000	0.000000	1
41.777081	15.642117	0.000000	-0.003805	0.010133	0.000000	0.010824	-1.496253	0.000000	0.000000	0.000000	0.000000	0.000000	1
44.886073	15.642117	0.000000	-0.004829	0.003647	0.000000	0.006051	-0.466910	0.000000	0.000000	0.000000	0.000000	0.000000	1
47.995066	15.642117	0.000000	0.008925	0.014974	0.000000	0.017432	8.104368	0.000000	0.000000	0.000000	0.000000	0.000000	1
51.104058	15.642117	0.000000	-0.098450	0.078404	0.000000	0.125856	19.660953	0.000000	0.000000	0.000000	0.000000	0.000000	1
54.213050	15.642117	0.000000	-0.346269	0.154034	0.000000	0.378984	15.906403	0.000000	0.000000	0.000000	0.000000	0.000000	2
57.322042	15.642117	0.000000	-0.422325	0.145976	0.000000	0.446841	6.078357	0.000000	0.000000	0.000000	0.000000	0.000000	2
60.431034	15.642117	0.000000	-0.493261	0.107735	0.000000	0.504889	12.329726	0.000000	0.000000	0.000000	0.000000	0.000000	2
63.540026	15.642117	0.000000	-0.502857	0.071365	0.000000	0.507895	65.438852	0.000000	0.000000	0.000000	0.000000	0.000000	1
66.649018	15.642117	0.000000	-0.660175	0.478520	0.000000	0.815360	53.942322	0.000000	0.000000	0.000000	0.000000	0.000000	1
69.758010	15.642117	0.000000	-0.646626	0.634406	0.000000	0.905868	3.108638	0.000000	0.000000	0.000000	0.000000	0.000000	1
72.867002	15.642117	0.000000	-0.514723	0.711126	0.000000	0.877861	-15.293912	0.000000	0.000000	0.000000	0.000000	0.000000	2
75.975994	15.642117	0.000000	-0.284413	0.767496	0.000000	0.818499	-102.232075	0.000000	0.000000	0.000000	0.000000	0.000000	1
79.084987	15.642117	0.000000	-0.107197	0.277205	0.000000	0.297210	-135.757558	0.000000	0.000000	0.000000	0.000000	0.000000	2
82.193979	15.642117	0.000000	-0.053212	0.057777	0.000000	0.078548	-55.469178	0.000000	0.000000	0.000000	0.000000	0.000000	2
85.302971	15.642117	0.000000	-0.043462	0.045494	0.000000	0.062918	-3.991527	0.000000	0.000000	0.000000	0.000000	0.000000	1
88.411963	15.642117	0.000000	-0.045341	0.037135	0.000000	0.058607	-1.347959	0.000000	0.000000	0.000000	0.000000	0.000000	1
91.520955	15.642117	0.000000	-0.006630	0.030518	0.000000	0.031230	0.444558	0.000000	0.000000	0.000000	0.000000	0.000000	1
94.629947	15.642117	0.000000	-0.015141	0.025800	0.000000	0.029915	-0.008613	0.000000	0.000000	0.000000	0.000000	0.000000	1
97.738939	15.642117	0.000000	-0.007765	0.015728	0.000000	0.017540	1.151106	0.000000	0.000000	0.000000	0.000000	0.000000	1
100.847931	15.642117	0.000000	0.014878	0.016699	0.000000	0.022365	-0.423370	0.000000	0.000000	0.000000	0.000000	0.000000	1
103.956923	15.642117	0.000000	0.014470	0.006338	0.000000	0.015797	-4.277426	0.000000	0.000000	0.000000	0.000000	0.000000	1
107.065915	15.642117	0.000000	0.019691	0.016800	0.000000	0.025884	-2.392632	0.000000	0.000000	0.000000	0.000000	0.000000	1
110.174908	15.642117	0.000000	0.021776	0.032765	0.000000	0.039341	-1.980046	0.000000	0.000000	0.000000	0.000000	0.000000	1
113.283900	15.642117	0.000000	-0.001436	0.004044	0.000000	0.004291	-2.117841	0.000000	0.000000	0.000000	0.000000	0.000000	1
116.392892	15.642117	0.000000	-0.003267	0.002677	0.000000	0.004224	-0.155555	0.000000	0.000000	0.000000	0.000000	0.000000	1
119.501884	15.642117	0.000000	-0.003375	0.002978	0.000000	0.004500	1.508017	0.000000	0.000000	0.000000	0.000000	0.000000	1