TITLE = "PIV Result  1937 "
VARIABLES = "X (mm)""Y (mm)""Z (mm)""U (m/s)""V (m/s)""W (m/s)""Speed (m/s)""Vorticity""U-std""V-std""W-std""Speed-std""Vorticity-std""Flag"
ZONE T="ZONE 1937 "
I= 51 , J= 16 , K= 1 , F=POINT
DT=(DOUBLE DOUBLE DOUBLE DOUBLE DOUBLE DOUBLE DOUBLE DOUBLE DOUBLE DOUBLE DOUBLE DOUBLE DOUBLE DOUBLE)
4.469176	3.206148	0.000000	0.002704	0.004007	0.000000	0.004834	-0.488360	0.000000	0.000000	0.000000	0.000000	0.000000	1
7.578168	3.206148	0.000000	-0.000481	0.001961	0.000000	0.002019	-0.261424	0.000000	0.000000	0.000000	0.000000	0.000000	1
10.687160	3.206148	0.000000	-0.001327	0.002620	0.000000	0.002937	0.338485	0.000000	0.000000	0.000000	0.000000	0.000000	1
13.796152	3.206148	0.000000	0.004358	0.005960	0.000000	0.007384	1.133396	0.000000	0.000000	0.000000	0.000000	0.000000	1
16.905145	3.206148	0.000000	0.002445	0.005693	0.000000	0.006196	0.727863	0.000000	0.000000	0.000000	0.000000	0.000000	1
20.014137	3.206148	0.000000	0.001548	0.005790	0.000000	0.005994	-0.067001	0.000000	0.000000	0.000000	0.000000	0.000000	1
23.123129	3.206148	0.000000	0.003642	0.007970	0.000000	0.008762	-0.342576	0.000000	0.000000	0.000000	0.000000	0.000000	1
26.232121	3.206148	0.000000	0.001841	0.005452	0.000000	0.005755	-0.433301	0.000000	0.000000	0.000000	0.000000	0.000000	1
29.341113	3.206148	0.000000	0.002890	0.005330	0.000000	0.006063	-1.168782	0.000000	0.000000	0.000000	0.000000	0.000000	1
32.450105	3.206148	0.000000	0.002711	0.005640	0.000000	0.006257	-3.442921	0.000000	0.000000	0.000000	0.000000	0.000000	1
35.559097	3.206148	0.000000	-0.002550	0.000065	0.000000	0.002551	-3.808684	0.000000	0.000000	0.000000	0.000000	0.000000	1
38.668089	3.206148	0.000000	-0.000111	-0.000114	0.000000	0.000159	-2.414394	0.000000	0.000000	0.000000	0.000000	0.000000	1
41.777081	3.206148	0.000000	0.001349	0.000063	0.000000	0.001351	-2.308229	0.000000	0.000000	0.000000	0.000000	0.000000	1
44.886073	3.206148	0.000000	-0.000702	-0.000074	0.000000	0.000706	-5.010998	0.000000	0.000000	0.000000	0.000000	0.000000	1
47.995066	3.206148	0.000000	0.001812	-0.000299	0.000000	0.001837	-9.070658	0.000000	0.000000	0.000000	0.000000	0.000000	1
51.104058	3.206148	0.000000	-0.000945	-0.000213	0.000000	0.000969	-6.724098	0.000000	0.000000	0.000000	0.000000	0.000000	1
54.213050	3.206148	0.000000	-0.001122	0.000719	0.000000	0.001333	-0.747616	0.000000	0.000000	0.000000	0.000000	0.000000	1
57.322042	3.206148	0.000000	0.000739	0.004411	0.000000	0.004472	1.737365	0.000000	0.000000	0.000000	0.000000	0.000000	1
60.431034	3.206148	0.000000	-0.002143	0.004855	0.000000	0.005307	0.035957	0.000000	0.000000	0.000000	0.000000	0.000000	1
63.540026	3.206148	0.000000	-0.003336	-0.002655	0.000000	0.004264	-3.678815	0.000000	0.000000	0.000000	0.000000	0.000000	1
66.649018	3.206148	0.000000	-0.014347	-0.002049	0.000000	0.014493	-4.782194	0.000000	0.000000	0.000000	0.000000	0.000000	1
69.758010	3.206148	0.000000	-0.017133	-0.000545	0.000000	0.017142	-1.827763	0.000000	0.000000	0.000000	0.000000	0.000000	1
72.867002	3.206148	0.000000	-0.001174	-0.022125	0.000000	0.022156	2.773360	0.000000	0.000000	0.000000	0.000000	0.000000	1
75.975994	3.206148	0.000000	0.017887	-0.025691	0.000000	0.031304	4.829633	0.000000	0.000000	0.000000	0.000000	0.000000	1
79.084987	3.206148	0.000000	0.010419	0.003906	0.000000	0.011127	4.889713	0.000000	0.000000	0.000000	0.000000	0.000000	2
82.193979	3.206148	0.000000	0.004775	0.003137	0.000000	0.005714	32.414785	0.000000	0.000000	0.000000	0.000000	0.000000	1
85.302971	3.206148	0.000000	0.138929	0.216127	0.000000	0.256929	129.554691	0.000000	0.000000	0.000000	0.000000	0.000000	2
88.411963	3.206148	0.000000	0.153662	0.952687	0.000000	0.964999	78.939650	0.000000	0.000000	0.000000	0.000000	0.000000	2
91.520955	3.206148	0.000000	0.067235	0.731001	0.000000	0.734087	-139.099878	0.000000	0.000000	0.000000	0.000000	0.000000	2
94.629947	3.206148	0.000000	-0.034727	0.070249	0.000000	0.078363	-127.429814	0.000000	0.000000	0.000000	0.000000	0.000000	1
97.738939	3.206148	0.000000	-0.030108	0.001526	0.000000	0.030146	-6.490393	0.000000	0.000000	0.000000	0.000000	0.000000	2
100.847931	3.206148	0.000000	-0.001198	0.000953	0.000000	0.001531	5.263031	0.000000	0.000000	0.000000	0.000000	0.000000	1
103.956923	3.206148	0.000000	-0.001046	-0.000977	0.000000	0.001431	4.622583	0.000000	0.000000	0.000000	0.000000	0.000000	1
107.065915	3.206148	0.000000	0.000694	-0.000929	0.000000	0.001159	3.629297	0.000000	0.000000	0.000000	0.000000	0.000000	1
110.174908	3.206148	0.000000	0.001037	-0.000238	0.000000	0.001064	2.576181	0.000000	0.000000	0.000000	0.000000	0.000000	1
113.283900	3.206148	0.000000	-0.000571	-0.000207	0.000000	0.000608	1.535708	0.000000	0.000000	0.000000	0.000000	0.000000	1
116.392892	3.206148	0.000000	0.000926	-0.000324	0.000000	0.000981	1.450368	0.000000	0.000000	0.000000	0.000000	0.000000	1
119.501884	3.206148	0.000000	-0.000168	-0.000662	0.000000	0.000683	1.017271	0.000000	0.000000	0.000000	0.000000	0.000000	1
122.610876	3.206148	0.000000	0.000650	0.000097	0.000000	0.000658	0.498571	0.000000	0.000000	0.000000	0.000000	0.000000	1
125.719868	3.206148	0.000000	-0.000566	0.000483	0.000000	0.000744	0.192032	0.000000	0.000000	0.000000	0.000000	0.000000	1
128.828860	3.206148	0.000000	-0.001170	0.000525	0.000000	0.001282	-0.220503	0.000000	0.000000	0.000000	0.000000	0.000000	1
131.937852	3.206148	0.000000	-0.000571	0.000996	0.000000	0.001148	-0.610409	0.000000	0.000000	0.000000	0.000000	0.000000	1
135.046844	3.206148	0.000000	-0.004782	0.007813	0.000000	0.009160	-0.624504	0.000000	0.000000	0.000000	0.000000	0.000000	1
138.155836	3.206148	0.000000	-0.007007	0.008614	0.000000	0.011104	-0.203021	0.000000	0.000000	0.000000	0.000000	0.000000	1
141.264829	3.206148	0.000000	-0.004429	0.007071	0.000000	0.008343	-0.322246	0.000000	0.000000	0.000000	0.000000	0.000000	1
144.373821	3.206148	0.000000	0.000280	0.003281	0.000000	0.003293	0.695457	0.000000	0.000000	0.000000	0.000000	0.000000	1
147.482813	3.206148	0.000000	-0.005009	0.004645	0.000000	0.006831	1.819611	0.000000	0.000000	0.000000	0.000000	0.000000	1
150.591805	3.206148	0.000000	-0.006113	0.003907	0.000000	0.007255	1.040192	0.000000	0.000000	0.000000	0.000000	0.000000	1
153.700797	3.206148	0.000000	-0.004760	0.004522	0.000000	0.006565	-0.589160	0.000000	0.000000	0.000000	0.000000	0.000000	1
156.809789	3.206148	0.000000	-0.007463	0.005098	0.000000	0.009038	-1.661001	0.000000	0.000000	0.000000	0.000000	0.000000	1
159.918781	3.206148	0.000000	-0.007262	0.005714	0.000000	0.009240	-1.609843	0.000000	0.000000	0.000000	0.000000	0.000000	1
4.469176	6.315140	0.000000	0.001016	0.005356	0.000000	0.005451	-0.713484	0.000000	0.000000	0.000000	0.000000	0.000000	1
7.578168	6.315140	0.000000	-0.000744	0.002414	0.000000	0.002526	-0.359215	0.000000	0.000000	0.000000	0.000000	0.000000	1
10.687160	6.315140	0.000000	-0.000451	0.002153	0.000000	0.002200	0.198365	0.000000	0.000000	0.000000	0.000000	0.000000	1
13.796152	6.315140	0.000000	0.000821	0.000575	0.000000	0.001002	0.845316	0.000000	0.000000	0.000000	0.000000	0.000000	1
16.905145	6.315140	0.000000	0.001685	0.006216	0.000000	0.006440	0.719986	0.000000	0.000000	0.000000	0.000000	0.000000	1
20.014137	6.315140	0.000000	0.002210	0.005401	0.000000	0.005836	-0.026316	0.000000	0.000000	0.000000	0.000000	0.000000	1
23.123129	6.315140	0.000000	0.003805	0.003832	0.000000	0.005400	-0.175210	0.000000	0.000000	0.000000	0.000000	0.000000	1
26.232121	6.315140	0.000000	0.004061	0.004685	0.000000	0.006200	0.452335	0.000000	0.000000	0.000000	0.000000	0.000000	1
29.341113	6.315140	0.000000	0.009170	0.011966	0.000000	0.015075	-0.097608	0.000000	0.000000	0.000000	0.000000	0.000000	1
32.450105	6.315140	0.000000	0.009153	0.011185	0.000000	0.014453	-2.511194	0.000000	0.000000	0.000000	0.000000	0.000000	1
35.559097	6.315140	0.000000	0.006734	0.002863	0.000000	0.007318	-2.860330	0.000000	0.000000	0.000000	0.000000	0.000000	1
38.668089	6.315140	0.000000	0.007197	0.001893	0.000000	0.007442	-1.719973	0.000000	0.000000	0.000000	0.000000	0.000000	1
41.777081	6.315140	0.000000	0.007403	0.002795	0.000000	0.007913	-1.567353	0.000000	0.000000	0.000000	0.000000	0.000000	1
44.886073	6.315140	0.000000	0.010624	0.003890	0.000000	0.011314	-2.660569	0.000000	0.000000	0.000000	0.000000	0.000000	1
47.995066	6.315140	0.000000	0.035289	0.003022	0.000000	0.035418	-3.153807	0.000000	0.000000	0.000000	0.000000	0.000000	1
51.104058	6.315140	0.000000	0.033127	0.003578	0.000000	0.033320	1.211775	0.000000	0.000000	0.000000	0.000000	0.000000	1
54.213050	6.315140	0.000000	-0.002210	0.018916	0.000000	0.019045	4.075172	0.000000	0.000000	0.000000	0.000000	0.000000	1
57.322042	6.315140	0.000000	-0.000004	0.020810	0.000000	0.020810	6.682758	0.000000	0.000000	0.000000	0.000000	0.000000	1
60.431034	6.315140	0.000000	0.002593	0.038548	0.000000	0.038635	6.229971	0.000000	0.000000	0.000000	0.000000	0.000000	1
63.540026	6.315140	0.000000	-0.000267	0.040121	0.000000	0.040122	-1.602196	0.000000	0.000000	0.000000	0.000000	0.000000	1
66.649018	6.315140	0.000000	-0.016578	0.008347	0.000000	0.018561	-5.155160	0.000000	0.000000	0.000000	0.000000	0.000000	2
69.758010	6.315140	0.000000	-0.016897	-0.022615	0.000000	0.028230	-1.547729	0.000000	0.000000	0.000000	0.000000	0.000000	2
72.867002	6.315140	0.000000	-0.016979	-0.011868	0.000000	0.020715	2.294135	0.000000	0.000000	0.000000	0.000000	0.000000	1
75.975994	6.315140	0.000000	0.016062	0.003824	0.000000	0.016511	-0.105847	0.000000	0.000000	0.000000	0.000000	0.000000	1
79.084987	6.315140	0.000000	0.019626	0.011915	0.000000	0.022960	16.223428	0.000000	0.000000	0.000000	0.000000	0.000000	2
82.193979	6.315140	0.000000	0.069032	0.116651	0.000000	0.135546	49.794050	0.000000	0.000000	0.000000	0.000000	0.000000	2
85.302971	6.315140	0.000000	0.168394	0.369989	0.000000	0.406508	109.587364	0.000000	0.000000	0.000000	0.000000	0.000000	1
88.411963	6.315140	0.000000	0.153662	0.901428	0.000000	0.914432	64.146780	0.000000	0.000000	0.000000	0.000000	0.000000	2
91.520955	6.315140	0.000000	0.062668	0.861706	0.000000	0.863981	-147.884664	0.000000	0.000000	0.000000	0.000000	0.000000	2
94.629947	6.315140	0.000000	-0.029584	0.050030	0.000000	0.058122	-143.242751	0.000000	0.000000	0.000000	0.000000	0.000000	1
97.738939	6.315140	0.000000	-0.037685	0.004606	0.000000	0.037966	-7.899034	0.000000	0.000000	0.000000	0.000000	0.000000	1
100.847931	6.315140	0.000000	-0.030631	-0.000835	0.000000	0.030643	2.052267	0.000000	0.000000	0.000000	0.000000	0.000000	1
103.956923	6.315140	0.000000	-0.009230	-0.002068	0.000000	0.009459	2.165960	0.000000	0.000000	0.000000	0.000000	0.000000	1
107.065915	6.315140	0.000000	-0.009475	0.002564	0.000000	0.009816	1.950934	0.000000	0.000000	0.000000	0.000000	0.000000	1
110.174908	6.315140	0.000000	-0.010458	0.002310	0.000000	0.010710	1.208041	0.000000	0.000000	0.000000	0.000000	0.000000	1
113.283900	6.315140	0.000000	-0.003240	-0.001948	0.000000	0.003781	0.485879	0.000000	0.000000	0.000000	0.000000	0.000000	1
116.392892	6.315140	0.000000	-0.004987	-0.001252	0.000000	0.005142	0.580219	0.000000	0.000000	0.000000	0.000000	0.000000	1
119.501884	6.315140	0.000000	-0.002619	-0.000403	0.000000	0.002650	0.399376	0.000000	0.000000	0.000000	0.000000	0.000000	1
122.610876	6.315140	0.000000	-0.000851	-0.001341	0.000000	0.001588	0.567807	0.000000	0.000000	0.000000	0.000000	0.000000	1
125.719868	6.315140	0.000000	0.003089	0.002853	0.000000	0.004205	1.186678	0.000000	0.000000	0.000000	0.000000	0.000000	1
128.828860	6.315140	0.000000	0.000755	0.008354	0.000000	0.008388	0.705106	0.000000	0.000000	0.000000	0.000000	0.000000	1
131.937852	6.315140	0.000000	0.000020	0.007693	0.000000	0.007693	-0.215917	0.000000	0.000000	0.000000	0.000000	0.000000	1
135.046844	6.315140	0.000000	-0.000528	0.000835	0.000000	0.000988	0.363855	0.000000	0.000000	0.000000	0.000000	0.000000	1
138.155836	6.315140	0.000000	-0.003443	0.004972	0.000000	0.006048	0.993585	0.000000	0.000000	0.000000	0.000000	0.000000	1
141.264829	6.315140	0.000000	-0.005879	0.008985	0.000000	0.010737	0.112953	0.000000	0.000000	0.000000	0.000000	0.000000	1
144.373821	6.315140	0.000000	-0.001071	0.005610	0.000000	0.005711	0.672157	0.000000	0.000000	0.000000	0.000000	0.000000	1
147.482813	6.315140	0.000000	-0.010130	0.010786	0.000000	0.014797	1.487105	0.000000	0.000000	0.000000	0.000000	0.000000	1
150.591805	6.315140	0.000000	-0.010660	0.011472	0.000000	0.015660	0.346678	0.000000	0.000000	0.000000	0.000000	0.000000	1
153.700797	6.315140	0.000000	-0.006600	0.007789	0.000000	0.010209	-1.117358	0.000000	0.000000	0.000000	0.000000	0.000000	1
156.809789	6.315140	0.000000	-0.001909	0.000281	0.000000	0.001929	-1.387334	0.000000	0.000000	0.000000	0.000000	0.000000	1
159.918781	6.315140	0.000000	-0.001616	0.000855	0.000000	0.001828	-0.821343	0.000000	0.000000	0.000000	0.000000	0.000000	1
4.469176	9.424132	0.000000	-0.001015	0.006041	0.000000	0.006125	-0.983979	0.000000	0.000000	0.000000	0.000000	0.000000	1
7.578168	9.424132	0.000000	0.000544	0.002404	0.000000	0.002464	-0.475769	0.000000	0.000000	0.000000	0.000000	0.000000	1
10.687160	9.424132	0.000000	-0.001675	0.002883	0.000000	0.003334	-0.252562	0.000000	0.000000	0.000000	0.000000	0.000000	1
13.796152	9.424132	0.000000	-0.001395	0.001593	0.000000	0.002118	-0.201172	0.000000	0.000000	0.000000	0.000000	0.000000	1
16.905145	9.424132	0.000000	0.000579	-0.001011	0.000000	0.001165	0.380696	0.000000	0.000000	0.000000	0.000000	0.000000	1
20.014137	9.424132	0.000000	0.003620	0.002606	0.000000	0.004461	0.292594	0.000000	0.000000	0.000000	0.000000	0.000000	1
23.123129	9.424132	0.000000	0.003896	0.003358	0.000000	0.005143	0.234939	0.000000	0.000000	0.000000	0.000000	0.000000	1
26.232121	9.424132	0.000000	0.003935	0.004690	0.000000	0.006123	1.315628	0.000000	0.000000	0.000000	0.000000	0.000000	1
29.341113	9.424132	0.000000	0.009400	0.011931	0.000000	0.015189	0.847261	0.000000	0.000000	0.000000	0.000000	0.000000	1
32.450105	9.424132	0.000000	0.009586	0.011064	0.000000	0.014640	-1.743981	0.000000	0.000000	0.000000	0.000000	0.000000	1
35.559097	9.424132	0.000000	0.007256	0.003010	0.000000	0.007855	-2.297736	0.000000	0.000000	0.000000	0.000000	0.000000	1
38.668089	9.424132	0.000000	0.014547	0.005404	0.000000	0.015518	-1.169763	0.000000	0.000000	0.000000	0.000000	0.000000	1
41.777081	9.424132	0.000000	0.011680	0.009821	0.000000	0.015260	-0.427876	0.000000	0.000000	0.000000	0.000000	0.000000	1
44.886073	9.424132	0.000000	0.010242	0.008651	0.000000	0.013406	2.010200	0.000000	0.000000	0.000000	0.000000	0.000000	1
47.995066	9.424132	0.000000	0.026279	0.000240	0.000000	0.026281	6.506142	0.000000	0.000000	0.000000	0.000000	0.000000	1
51.104058	9.424132	0.000000	0.016776	0.008572	0.000000	0.018839	10.522002	0.000000	0.000000	0.000000	0.000000	0.000000	1
54.213050	9.424132	0.000000	-0.003768	0.054837	0.000000	0.054966	5.950580	0.000000	0.000000	0.000000	0.000000	0.000000	2
57.322042	9.424132	0.000000	-0.030817	0.051716	0.000000	0.060201	7.474346	0.000000	0.000000	0.000000	0.000000	0.000000	1
60.431034	9.424132	0.000000	-0.021648	0.092388	0.000000	0.094890	10.921925	0.000000	0.000000	0.000000	0.000000	0.000000	1
63.540026	9.424132	0.000000	-0.018252	0.089627	0.000000	0.091467	2.211843	0.000000	0.000000	0.000000	0.000000	0.000000	1
66.649018	9.424132	0.000000	-0.013547	0.071307	0.000000	0.072582	-2.109117	0.000000	0.000000	0.000000	0.000000	0.000000	1
69.758010	9.424132	0.000000	-0.027732	0.060856	0.000000	0.066877	0.472315	0.000000	0.000000	0.000000	0.000000	0.000000	2
72.867002	9.424132	0.000000	-0.014539	0.059557	0.000000	0.061306	4.295259	0.000000	0.000000	0.000000	0.000000	0.000000	2
75.975994	9.424132	0.000000	0.047593	0.082564	0.000000	0.095299	-1.593251	0.000000	0.000000	0.000000	0.000000	0.000000	1
79.084987	9.424132	0.000000	0.073700	0.092657	0.000000	0.118394	30.127036	0.000000	0.000000	0.000000	0.000000	0.000000	1
82.193979	9.424132	0.000000	0.108467	0.491553	0.000000	0.503378	66.518633	0.000000	0.000000	0.000000	0.000000	0.000000	1
85.302971	9.424132	0.000000	0.160322	0.694822	0.000000	0.713078	78.825988	0.000000	0.000000	0.000000	0.000000	0.000000	2
88.411963	9.424132	0.000000	0.219753	0.910671	0.000000	0.936810	52.798774	0.000000	0.000000	0.000000	0.000000	0.000000	2
91.520955	9.424132	0.000000	0.142285	1.020597	0.000000	1.030468	-153.778714	0.000000	0.000000	0.000000	0.000000	0.000000	2
94.629947	9.424132	0.000000	-0.017320	0.051316	0.000000	0.054161	-174.342743	0.000000	0.000000	0.000000	0.000000	0.000000	1
97.738939	9.424132	0.000000	-0.037144	0.004366	0.000000	0.037400	-17.483846	0.000000	0.000000	0.000000	0.000000	0.000000	1
100.847931	9.424132	0.000000	-0.029571	0.000838	0.000000	0.029582	-4.131725	0.000000	0.000000	0.000000	0.000000	0.000000	1
103.956923	9.424132	0.000000	-0.004911	0.003614	0.000000	0.006098	-1.979549	0.000000	0.000000	0.000000	0.000000	0.000000	1
107.065915	9.424132	0.000000	-0.011616	0.001382	0.000000	0.011698	-1.420142	0.000000	0.000000	0.000000	0.000000	0.000000	1
110.174908	9.424132	0.000000	-0.011834	0.001288	0.000000	0.011903	-1.778326	0.000000	0.000000	0.000000	0.000000	0.000000	1
113.283900	9.424132	0.000000	-0.002190	0.000062	0.000000	0.002191	-1.548603	0.000000	0.000000	0.000000	0.000000	0.000000	1
116.392892	9.424132	0.000000	-0.003823	-0.000274	0.000000	0.003833	-0.574044	0.000000	0.000000	0.000000	0.000000	0.000000	1
119.501884	9.424132	0.000000	-0.000461	0.000447	0.000000	0.000643	0.060453	0.000000	0.000000	0.000000	0.000000	0.000000	1
122.610876	9.424132	0.000000	-0.000987	0.002441	0.000000	0.002633	0.524753	0.000000	0.000000	0.000000	0.000000	0.000000	1
125.719868	9.424132	0.000000	-0.001064	0.002847	0.000000	0.003039	1.503599	0.000000	0.000000	0.000000	0.000000	0.000000	1
128.828860	9.424132	0.000000	-0.001085	0.009591	0.000000	0.009652	1.921848	0.000000	0.000000	0.000000	0.000000	0.000000	1
131.937852	9.424132	0.000000	0.000042	0.010474	0.000000	0.010474	1.438003	0.000000	0.000000	0.000000	0.000000	0.000000	1
135.046844	9.424132	0.000000	-0.008015	0.010047	0.000000	0.012852	1.548723	0.000000	0.000000	0.000000	0.000000	0.000000	1
138.155836	9.424132	0.000000	-0.008287	0.010216	0.000000	0.013155	0.991948	0.000000	0.000000	0.000000	0.000000	0.000000	1
141.264829	9.424132	0.000000	-0.007277	0.010562	0.000000	0.012826	-0.309343	0.000000	0.000000	0.000000	0.000000	0.000000	1
144.373821	9.424132	0.000000	-0.002811	0.007016	0.000000	0.007558	-0.002619	0.000000	0.000000	0.000000	0.000000	0.000000	1
147.482813	9.424132	0.000000	-0.010628	0.011455	0.000000	0.015626	-0.067236	0.000000	0.000000	0.000000	0.000000	0.000000	1
150.591805	9.424132	0.000000	-0.011239	0.012198	0.000000	0.016586	-1.241388	0.000000	0.000000	0.000000	0.000000	0.000000	1
153.700797	9.424132	0.000000	-0.006578	0.008504	0.000000	0.010751	-1.508502	0.000000	0.000000	0.000000	0.000000	0.000000	1
156.809789	9.424132	0.000000	-0.001819	0.002479	0.000000	0.003075	-0.448164	0.000000	0.000000	0.000000	0.000000	0.000000	1
159.918781	9.424132	0.000000	-0.000834	0.002574	0.000000	0.002705	0.529422	0.000000	0.000000	0.000000	0.000000	0.000000	1
4.469176	12.533124	0.000000	-0.002209	0.006617	0.000000	0.006976	-1.146288	0.000000	0.000000	0.000000	0.000000	0.000000	1
7.578168	12.533124	0.000000	0.000535	0.002650	0.000000	0.002704	-0.455225	0.000000	0.000000	0.000000	0.000000	0.000000	1
10.687160	12.533124	0.000000	0.000194	0.004281	0.000000	0.004285	-0.293279	0.000000	0.000000	0.000000	0.000000	0.000000	1
13.796152	12.533124	0.000000	-0.000438	0.001140	0.000000	0.001221	-0.619685	0.000000	0.000000	0.000000	0.000000	0.000000	1
16.905145	12.533124	0.000000	0.001122	0.000567	0.000000	0.001257	0.166870	0.000000	0.000000	0.000000	0.000000	0.000000	1
20.014137	12.533124	0.000000	0.003054	0.002216	0.000000	0.003774	0.576696	0.000000	0.000000	0.000000	0.000000	0.000000	1
23.123129	12.533124	0.000000	0.003842	0.002654	0.000000	0.004670	0.121154	0.000000	0.000000	0.000000	0.000000	0.000000	1
26.232121	12.533124	0.000000	0.002171	0.003636	0.000000	0.004235	1.368173	0.000000	0.000000	0.000000	0.000000	0.000000	1
29.341113	12.533124	0.000000	0.007441	0.004623	0.000000	0.008760	3.723451	0.000000	0.000000	0.000000	0.000000	0.000000	1
32.450105	12.533124	0.000000	0.016573	0.007533	0.000000	0.018205	3.458569	0.000000	0.000000	0.000000	0.000000	0.000000	1
35.559097	12.533124	0.000000	0.019427	0.013997	0.000000	0.023944	2.498613	0.000000	0.000000	0.000000	0.000000	0.000000	1
38.668089	12.533124	0.000000	0.018774	0.015378	0.000000	0.024268	2.011746	0.000000	0.000000	0.000000	0.000000	0.000000	1
41.777081	12.533124	0.000000	0.011788	0.011580	0.000000	0.016524	2.579962	0.000000	0.000000	0.000000	0.000000	0.000000	1
44.886073	12.533124	0.000000	0.005546	0.011516	0.000000	0.012781	7.679705	0.000000	0.000000	0.000000	0.000000	0.000000	1
47.995066	12.533124	0.000000	0.001154	0.040606	0.000000	0.040622	11.974309	0.000000	0.000000	0.000000	0.000000	0.000000	1
51.104058	12.533124	0.000000	-0.009090	0.058241	0.000000	0.058946	11.005119	0.000000	0.000000	0.000000	0.000000	0.000000	1
54.213050	12.533124	0.000000	0.015918	0.076780	0.000000	0.078413	3.578430	0.000000	0.000000	0.000000	0.000000	0.000000	1
57.322042	12.533124	0.000000	-0.037402	0.059365	0.000000	0.070165	3.477811	0.000000	0.000000	0.000000	0.000000	0.000000	1
60.431034	12.533124	0.000000	-0.028336	0.080351	0.000000	0.085201	7.727228	0.000000	0.000000	0.000000	0.000000	0.000000	2
63.540026	12.533124	0.000000	-0.023640	0.113249	0.000000	0.115690	4.905824	0.000000	0.000000	0.000000	0.000000	0.000000	2
66.649018	12.533124	0.000000	-0.038160	0.108468	0.000000	0.114985	1.886398	0.000000	0.000000	0.000000	0.000000	0.000000	2
69.758010	12.533124	0.000000	-0.026810	0.104618	0.000000	0.107998	4.021027	0.000000	0.000000	0.000000	0.000000	0.000000	2
72.867002	12.533124	0.000000	-0.009740	0.129759	0.000000	0.130124	9.950661	0.000000	0.000000	0.000000	0.000000	0.000000	1
75.975994	12.533124	0.000000	0.093270	0.223366	0.000000	0.242057	5.516297	0.000000	0.000000	0.000000	0.000000	0.000000	2
79.084987	12.533124	0.000000	0.139692	0.281869	0.000000	0.314585	17.827284	0.000000	0.000000	0.000000	0.000000	0.000000	2
82.193979	12.533124	0.000000	0.158909	0.449100	0.000000	0.476385	47.974023	0.000000	0.000000	0.000000	0.000000	0.000000	1
85.302971	12.533124	0.000000	0.186141	0.691485	0.000000	0.716100	65.858587	0.000000	0.000000	0.000000	0.000000	0.000000	2
88.411963	12.533124	0.000000	0.210524	0.968879	0.000000	0.991487	61.536862	0.000000	0.000000	0.000000	0.000000	0.000000	1
91.520955	12.533124	0.000000	0.149387	1.079619	0.000000	1.089905	-146.685108	0.000000	0.000000	0.000000	0.000000	0.000000	2
94.629947	12.533124	0.000000	0.087490	0.061576	0.000000	0.106987	-189.710354	0.000000	0.000000	0.000000	0.000000	0.000000	2
97.738939	12.533124	0.000000	0.003643	-0.004876	0.000000	0.006087	-23.149197	0.000000	0.000000	0.000000	0.000000	0.000000	1
100.847931	12.533124	0.000000	-0.003695	0.005206	0.000000	0.006384	-6.696303	0.000000	0.000000	0.000000	0.000000	0.000000	1
103.956923	12.533124	0.000000	-0.001584	0.003382	0.000000	0.003734	-2.201066	0.000000	0.000000	0.000000	0.000000	0.000000	1
107.065915	12.533124	0.000000	0.000892	0.004078	0.000000	0.004175	-2.394665	0.000000	0.000000	0.000000	0.000000	0.000000	1
110.174908	12.533124	0.000000	0.002280	0.009453	0.000000	0.009725	-2.208225	0.000000	0.000000	0.000000	0.000000	0.000000	1
113.283900	12.533124	0.000000	0.000830	0.006914	0.000000	0.006964	-1.657479	0.000000	0.000000	0.000000	0.000000	0.000000	1
116.392892	12.533124	0.000000	-0.001904	0.001585	0.000000	0.002477	-0.928875	0.000000	0.000000	0.000000	0.000000	0.000000	1
119.501884	12.533124	0.000000	-0.001771	0.001406	0.000000	0.002261	0.626410	0.000000	0.000000	0.000000	0.000000	0.000000	1
122.610876	12.533124	0.000000	-0.000991	0.002386	0.000000	0.002584	1.454127	0.000000	0.000000	0.000000	0.000000	0.000000	1
125.719868	12.533124	0.000000	-0.001061	0.002820	0.000000	0.003013	1.283994	0.000000	0.000000	0.000000	0.000000	0.000000	1
128.828860	12.533124	0.000000	-0.001577	0.005016	0.000000	0.005258	2.023051	0.000000	0.000000	0.000000	0.000000	0.000000	1
131.937852	12.533124	0.000000	-0.008830	0.012860	0.000000	0.015600	2.133737	0.000000	0.000000	0.000000	0.000000	0.000000	1
135.046844	12.533124	0.000000	-0.012297	0.015588	0.000000	0.019855	0.147386	0.000000	0.000000	0.000000	0.000000	0.000000	1
138.155836	12.533124	0.000000	-0.011939	0.013734	0.000000	0.018198	-1.748372	0.000000	0.000000	0.000000	0.000000	0.000000	1
141.264829	12.533124	0.000000	-0.003779	0.004420	0.000000	0.005815	-1.467501	0.000000	0.000000	0.000000	0.000000	0.000000	1
144.373821	12.533124	0.000000	-0.002606	0.005973	0.000000	0.006516	-0.317276	0.000000	0.000000	0.000000	0.000000	0.000000	1
147.482813	12.533124	0.000000	-0.004089	0.005839	0.000000	0.007128	-0.618809	0.000000	0.000000	0.000000	0.000000	0.000000	1
150.591805	12.533124	0.000000	-0.004490	0.004792	0.000000	0.006567	-1.097417	0.000000	0.000000	0.000000	0.000000	0.000000	1
153.700797	12.533124	0.000000	-0.003967	0.004875	0.000000	0.006285	-0.186804	0.000000	0.000000	0.000000	0.000000	0.000000	1
156.809789	12.533124	0.000000	-0.002066	0.009179	0.000000	0.009409	0.848957	0.000000	0.000000	0.000000	0.000000	0.000000	1
159.918781	12.533124	0.000000	-0.006624	0.009836	0.000000	0.011859	1.045339	0.000000	0.000000	0.000000	0.000000	0.000000	1
4.469176	15.642117	0.000000	-0.002126	0.006288	0.000000	0.006638	-1.198769	0.000000	0.000000	0.000000	0.000000	0.000000	1
7.578168	15.642117	0.000000	0.000444	0.002393	0.000000	0.002434	-0.440114	0.000000	0.000000	0.000000	0.000000	0.000000	1
10.687160	15.642117	0.000000	-0.000526	0.002634	0.000000	0.002686	0.022175	0.000000	0.000000	0.000000	0.000000	0.000000	1
13.796152	15.642117	0.000000	-0.001067	0.001455	0.000000	0.001804	-0.186428	0.000000	0.000000	0.000000	0.000000	0.000000	1
16.905145	15.642117	0.000000	0.000669	0.000436	0.000000	0.000798	-0.050823	0.000000	0.000000	0.000000	0.000000	0.000000	1
20.014137	15.642117	0.000000	0.001168	0.000494	0.000000	0.001268	0.089971	0.000000	0.000000	0.000000	0.000000	0.000000	1
23.123129	15.642117	0.000000	0.002300	-0.000175	0.000000	0.002307	0.225776	0.000000	0.000000	0.000000	0.000000	0.000000	1
26.232121	15.642117	0.000000	0.006222	-0.004774	0.000000	0.007842	1.528161	0.000000	0.000000	0.000000	0.000000	0.000000	1
29.341113	15.642117	0.000000	-0.022050	-0.007129	0.000000	0.023174	4.091587	0.000000	0.000000	0.000000	0.000000	0.000000	2
32.450105	15.642117	0.000000	-0.010099	-0.006630	0.000000	0.012081	6.789174	0.000000	0.000000	0.000000	0.000000	0.000000	2
35.559097	15.642117	0.000000	0.008459	-0.000552	0.000000	0.008477	10.260048	0.000000	0.000000	0.000000	0.000000	0.000000	1
38.668089	15.642117	0.000000	0.013073	0.026732	0.000000	0.029757	9.347592	0.000000	0.000000	0.000000	0.000000	0.000000	1
41.777081	15.642117	0.000000	-0.001562	0.032521	0.000000	0.032558	8.393610	0.000000	0.000000	0.000000	0.000000	0.000000	1
44.886073	15.642117	0.000000	-0.029641	0.027538	0.000000	0.040459	17.940608	0.000000	0.000000	0.000000	0.000000	0.000000	1
47.995066	15.642117	0.000000	-0.013644	0.042128	0.000000	0.044282	28.942013	0.000000	0.000000	0.000000	0.000000	0.000000	2
51.104058	15.642117	0.000000	-0.015370	0.080116	0.000000	0.081577	28.176135	0.000000	0.000000	0.000000	0.000000	0.000000	1
54.213050	15.642117	0.000000	-0.003228	0.085226	0.000000	0.085287	17.488150	0.000000	0.000000	0.000000	0.000000	0.000000	1
57.322042	15.642117	0.000000	-0.032544	0.090933	0.000000	0.096581	15.536638	0.000000	0.000000	0.000000	0.000000	0.000000	1
60.431034	15.642117	0.000000	-0.020935	0.124833	0.000000	0.126576	10.872561	0.000000	0.000000	0.000000	0.000000	0.000000	1
63.540026	15.642117	0.000000	-0.035191	0.120203	0.000000	0.125249	0.994890	0.000000	0.000000	0.000000	0.000000	0.000000	2
66.649018	15.642117	0.000000	-0.069551	0.122528	0.000000	0.140891	-0.836907	0.000000	0.000000	0.000000	0.000000	0.000000	1
69.758010	15.642117	0.000000	-0.029084	0.082857	0.000000	0.087813	8.138750	0.000000	0.000000	0.000000	0.000000	0.000000	2
72.867002	15.642117	0.000000	0.054409	0.201946	0.000000	0.209147	22.293233	0.000000	0.000000	0.000000	0.000000	0.000000	1
75.975994	15.642117	0.000000	0.151702	0.311795	0.000000	0.346741	26.365213	0.000000	0.000000	0.000000	0.000000	0.000000	1
79.084987	15.642117	0.000000	0.245491	0.450781	0.000000	0.513293	13.844951	0.000000	0.000000	0.000000	0.000000	0.000000	2
82.193979	15.642117	0.000000	0.233560	0.467522	0.000000	0.522615	35.519282	0.000000	0.000000	0.000000	0.000000	0.000000	2
85.302971	15.642117	0.000000	0.269047	0.753297	0.000000	0.799902	76.790760	0.000000	0.000000	0.000000	0.000000	0.000000	1
88.411963	15.642117	0.000000	0.187576	0.957248	0.000000	0.975453	65.138843	0.000000	0.000000	0.000000	0.000000	0.000000	1
91.520955	15.642117	0.000000	0.109510	1.193396	0.000000	1.198410	-150.622170	0.000000	0.000000	0.000000	0.000000	0.000000	1
94.629947	15.642117	0.000000	0.118299	0.020750	0.000000	0.120105	-185.549583	0.000000	0.000000	0.000000	0.000000	0.000000	1
97.738939	15.642117	0.000000	0.073766	0.009516	0.000000	0.074377	-16.369122	0.000000	0.000000	0.000000	0.000000	0.000000	2
100.847931	15.642117	0.000000	0.005980	0.001191	0.000000	0.006097	-4.172379	0.000000	0.000000	0.000000	0.000000	0.000000	1
103.956923	15.642117	0.000000	0.006061	0.020182	0.000000	0.021073	0.301656	0.000000	0.000000	0.000000	0.000000	0.000000	1
107.065915	15.642117	0.000000	0.006943	0.024210	0.000000	0.025186	-1.498620	0.000000	0.000000	0.000000	0.000000	0.000000	1
110.174908	15.642117	0.000000	-0.000161	0.010569	0.000000	0.010570	-1.495264	0.000000	0.000000	0.000000	0.000000	0.000000	1
113.283900	15.642117	0.000000	-0.000078	0.008953	0.000000	0.008953	-0.602039	0.000000	0.000000	0.000000	0.000000	0.000000	1
116.392892	15.642117	0.000000	-0.000321	0.006042	0.000000	0.006050	-0.664553	0.000000	0.000000	0.000000	0.000000	0.000000	1
119.501884	15.642117	0.000000	-0.000754	0.005306	0.000000	0.005359	0.812423	0.000000	0.000000	0.000000	0.000000	0.000000	1
122.610876	15.642117	0.000000	-0.009876	0.011334	0.000000	0.015033	2.177353	0.000000	0.000000	0.000000	0.000000	0.000000	1