TITLE = "PIV Result  2355 "
VARIABLES = "X (mm)""Y (mm)""Z (mm)""U (m/s)""V (m/s)""W (m/s)""Speed (m/s)""Vorticity""U-std""V-std""W-std""Speed-std""Vorticity-std""Flag"
ZONE T="ZONE 2355 "
I= 51 , J= 16 , K= 1 , F=POINT
DT=(DOUBLE DOUBLE DOUBLE DOUBLE DOUBLE DOUBLE DOUBLE DOUBLE DOUBLE DOUBLE DOUBLE DOUBLE DOUBLE DOUBLE)
4.469176	3.206148	0.000000	0.001208	0.006995	0.000000	0.007099	-0.568228	0.000000	0.000000	0.000000	0.000000	0.000000	1
7.578168	3.206148	0.000000	-0.002422	0.009576	0.000000	0.009877	-1.068588	0.000000	0.000000	0.000000	0.000000	0.000000	1
10.687160	3.206148	0.000000	-0.001750	0.009824	0.000000	0.009978	-3.134249	0.000000	0.000000	0.000000	0.000000	0.000000	1
13.796152	3.206148	0.000000	0.002574	0.004597	0.000000	0.005268	-4.070607	0.000000	0.000000	0.000000	0.000000	0.000000	1
16.905145	3.206148	0.000000	0.006015	0.007863	0.000000	0.009900	-2.773355	0.000000	0.000000	0.000000	0.000000	0.000000	1
20.014137	3.206148	0.000000	0.004867	0.007638	0.000000	0.009057	-0.617642	0.000000	0.000000	0.000000	0.000000	0.000000	1
23.123129	3.206148	0.000000	0.001966	0.004514	0.000000	0.004924	2.101326	0.000000	0.000000	0.000000	0.000000	0.000000	1
26.232121	3.206148	0.000000	0.003883	0.017032	0.000000	0.017469	1.517454	0.000000	0.000000	0.000000	0.000000	0.000000	1
29.341113	3.206148	0.000000	0.003731	0.017610	0.000000	0.018001	-0.894073	0.000000	0.000000	0.000000	0.000000	0.000000	1
32.450105	3.206148	0.000000	0.006295	0.012247	0.000000	0.013770	-2.376515	0.000000	0.000000	0.000000	0.000000	0.000000	1
35.559097	3.206148	0.000000	0.007276	0.002000	0.000000	0.007545	-3.021472	0.000000	0.000000	0.000000	0.000000	0.000000	1
38.668089	3.206148	0.000000	0.005000	0.000323	0.000000	0.005010	-1.463817	0.000000	0.000000	0.000000	0.000000	0.000000	1
41.777081	3.206148	0.000000	-0.000128	-0.000501	0.000000	0.000518	-2.050650	0.000000	0.000000	0.000000	0.000000	0.000000	1
44.886073	3.206148	0.000000	0.003820	0.001387	0.000000	0.004064	-5.346600	0.000000	0.000000	0.000000	0.000000	0.000000	1
47.995066	3.206148	0.000000	0.003383	0.001162	0.000000	0.003576	-2.985927	0.000000	0.000000	0.000000	0.000000	0.000000	1
51.104058	3.206148	0.000000	-0.000756	0.000273	0.000000	0.000804	0.121991	0.000000	0.000000	0.000000	0.000000	0.000000	1
54.213050	3.206148	0.000000	-0.001401	0.000080	0.000000	0.001404	-0.486156	0.000000	0.000000	0.000000	0.000000	0.000000	1
57.322042	3.206148	0.000000	-0.002686	-0.000421	0.000000	0.002719	0.650909	0.000000	0.000000	0.000000	0.000000	0.000000	1
60.431034	3.206148	0.000000	-0.005185	0.000468	0.000000	0.005206	3.245149	0.000000	0.000000	0.000000	0.000000	0.000000	1
63.540026	3.206148	0.000000	-0.002006	0.000777	0.000000	0.002151	4.791253	0.000000	0.000000	0.000000	0.000000	0.000000	1
66.649018	3.206148	0.000000	-0.000408	-0.000030	0.000000	0.000410	12.619162	0.000000	0.000000	0.000000	0.000000	0.000000	1
69.758010	3.206148	0.000000	-0.084883	-0.009410	0.000000	0.085402	113.696094	0.000000	0.000000	0.000000	0.000000	0.000000	2
72.867002	3.206148	0.000000	-0.270238	0.301377	0.000000	0.404792	145.215810	0.000000	0.000000	0.000000	0.000000	0.000000	2
75.975994	3.206148	0.000000	-0.529597	0.612163	0.000000	0.809455	19.612002	0.000000	0.000000	0.000000	0.000000	0.000000	1
79.084987	3.206148	0.000000	-0.370517	0.316508	0.000000	0.487299	-49.015451	0.000000	0.000000	0.000000	0.000000	0.000000	1
82.193979	3.206148	0.000000	-0.329901	0.150303	0.000000	0.362526	-48.342150	0.000000	0.000000	0.000000	0.000000	0.000000	1
85.302971	3.206148	0.000000	-0.065416	0.065454	0.000000	0.092539	-37.292173	0.000000	0.000000	0.000000	0.000000	0.000000	1
88.411963	3.206148	0.000000	0.014068	-0.013046	0.000000	0.019186	-20.642406	0.000000	0.000000	0.000000	0.000000	0.000000	1
91.520955	3.206148	0.000000	0.030096	-0.044173	0.000000	0.053451	-2.883740	0.000000	0.000000	0.000000	0.000000	0.000000	1
94.629947	3.206148	0.000000	0.042130	-0.029784	0.000000	0.051595	1.901997	0.000000	0.000000	0.000000	0.000000	0.000000	2
97.738939	3.206148	0.000000	0.000659	-0.004987	0.000000	0.005031	1.858001	0.000000	0.000000	0.000000	0.000000	0.000000	1
100.847931	3.206148	0.000000	-0.017503	0.000686	0.000000	0.017517	4.846442	0.000000	0.000000	0.000000	0.000000	0.000000	1
103.956923	3.206148	0.000000	-0.018710	0.000620	0.000000	0.018720	3.724086	0.000000	0.000000	0.000000	0.000000	0.000000	1
107.065915	3.206148	0.000000	0.001571	-0.001187	0.000000	0.001969	4.036916	0.000000	0.000000	0.000000	0.000000	0.000000	1
110.174908	3.206148	0.000000	0.002230	-0.003099	0.000000	0.003818	6.375326	0.000000	0.000000	0.000000	0.000000	0.000000	1
113.283900	3.206148	0.000000	0.001613	-0.002455	0.000000	0.002938	4.973523	0.000000	0.000000	0.000000	0.000000	0.000000	1
116.392892	3.206148	0.000000	-0.001007	-0.000622	0.000000	0.001184	4.749366	0.000000	0.000000	0.000000	0.000000	0.000000	1
119.501884	3.206148	0.000000	-0.000252	0.000517	0.000000	0.000575	7.451450	0.000000	0.000000	0.000000	0.000000	0.000000	1
122.610876	3.206148	0.000000	0.000903	0.000815	0.000000	0.001216	7.528813	0.000000	0.000000	0.000000	0.000000	0.000000	1
125.719868	3.206148	0.000000	-0.001329	0.000080	0.000000	0.001332	4.270937	0.000000	0.000000	0.000000	0.000000	0.000000	1
128.828860	3.206148	0.000000	-0.002029	-0.000098	0.000000	0.002031	2.615858	0.000000	0.000000	0.000000	0.000000	0.000000	1
131.937852	3.206148	0.000000	-0.001335	-0.000106	0.000000	0.001340	2.749742	0.000000	0.000000	0.000000	0.000000	0.000000	1
135.046844	3.206148	0.000000	-0.005519	0.010373	0.000000	0.011750	2.237510	0.000000	0.000000	0.000000	0.000000	0.000000	1
138.155836	3.206148	0.000000	-0.007167	0.012888	0.000000	0.014747	-0.299582	0.000000	0.000000	0.000000	0.000000	0.000000	1
141.264829	3.206148	0.000000	-0.006324	0.003505	0.000000	0.007230	-1.483358	0.000000	0.000000	0.000000	0.000000	0.000000	1
144.373821	3.206148	0.000000	-0.003389	0.001794	0.000000	0.003835	-0.736275	0.000000	0.000000	0.000000	0.000000	0.000000	1
147.482813	3.206148	0.000000	-0.010159	0.004166	0.000000	0.010980	-1.591474	0.000000	0.000000	0.000000	0.000000	0.000000	1
150.591805	3.206148	0.000000	-0.007899	-0.002809	0.000000	0.008383	-1.143181	0.000000	0.000000	0.000000	0.000000	0.000000	1
153.700797	3.206148	0.000000	-0.013181	0.004009	0.000000	0.013777	0.261256	0.000000	0.000000	0.000000	0.000000	0.000000	1
156.809789	3.206148	0.000000	-0.010940	0.003488	0.000000	0.011483	0.058910	0.000000	0.000000	0.000000	0.000000	0.000000	1
159.918781	3.206148	0.000000	-0.009881	0.003009	0.000000	0.010329	-0.126427	0.000000	0.000000	0.000000	0.000000	0.000000	2
4.469176	6.315140	0.000000	0.003603	0.006938	0.000000	0.007817	-0.654260	0.000000	0.000000	0.000000	0.000000	0.000000	1
7.578168	6.315140	0.000000	0.002456	0.008096	0.000000	0.008460	-0.619266	0.000000	0.000000	0.000000	0.000000	0.000000	1
10.687160	6.315140	0.000000	0.008006	0.012726	0.000000	0.015035	-1.265715	0.000000	0.000000	0.000000	0.000000	0.000000	1
13.796152	6.315140	0.000000	0.016499	0.012412	0.000000	0.020646	-1.877002	0.000000	0.000000	0.000000	0.000000	0.000000	1
16.905145	6.315140	0.000000	0.014747	0.010402	0.000000	0.018046	-2.072697	0.000000	0.000000	0.000000	0.000000	0.000000	1
20.014137	6.315140	0.000000	0.000794	0.002197	0.000000	0.002336	-0.914725	0.000000	0.000000	0.000000	0.000000	0.000000	1
23.123129	6.315140	0.000000	-0.001025	0.003664	0.000000	0.003805	1.885791	0.000000	0.000000	0.000000	0.000000	0.000000	1
26.232121	6.315140	0.000000	0.007148	0.012144	0.000000	0.014092	1.893688	0.000000	0.000000	0.000000	0.000000	0.000000	1
29.341113	6.315140	0.000000	0.004625	0.013872	0.000000	0.014623	-0.145612	0.000000	0.000000	0.000000	0.000000	0.000000	1
32.450105	6.315140	0.000000	0.010314	0.014882	0.000000	0.018107	-1.268255	0.000000	0.000000	0.000000	0.000000	0.000000	1
35.559097	6.315140	0.000000	0.013176	0.014762	0.000000	0.019787	-2.333939	0.000000	0.000000	0.000000	0.000000	0.000000	1
38.668089	6.315140	0.000000	0.003697	0.003750	0.000000	0.005266	-0.790885	0.000000	0.000000	0.000000	0.000000	0.000000	1
41.777081	6.315140	0.000000	0.013548	0.016030	0.000000	0.020989	0.220063	0.000000	0.000000	0.000000	0.000000	0.000000	1
44.886073	6.315140	0.000000	0.023098	0.022512	0.000000	0.032254	-3.297672	0.000000	0.000000	0.000000	0.000000	0.000000	1
47.995066	6.315140	0.000000	-0.001198	-0.004471	0.000000	0.004629	-2.399875	0.000000	0.000000	0.000000	0.000000	0.000000	1
51.104058	6.315140	0.000000	0.000671	-0.001963	0.000000	0.002075	0.626948	0.000000	0.000000	0.000000	0.000000	0.000000	1
54.213050	6.315140	0.000000	0.003325	0.001128	0.000000	0.003511	0.077189	0.000000	0.000000	0.000000	0.000000	0.000000	1
57.322042	6.315140	0.000000	-0.004817	0.001434	0.000000	0.005026	-0.103392	0.000000	0.000000	0.000000	0.000000	0.000000	1
60.431034	6.315140	0.000000	-0.014054	0.000430	0.000000	0.014061	0.720303	0.000000	0.000000	0.000000	0.000000	0.000000	1
63.540026	6.315140	0.000000	-0.023661	-0.000931	0.000000	0.023680	0.665143	0.000000	0.000000	0.000000	0.000000	0.000000	1
66.649018	6.315140	0.000000	-0.040257	-0.031516	0.000000	0.051126	10.502296	0.000000	0.000000	0.000000	0.000000	0.000000	1
69.758010	6.315140	0.000000	-0.129508	0.020209	0.000000	0.131075	106.616045	0.000000	0.000000	0.000000	0.000000	0.000000	2
72.867002	6.315140	0.000000	-0.528132	0.694008	0.000000	0.872107	106.899539	0.000000	0.000000	0.000000	0.000000	0.000000	2
75.975994	6.315140	0.000000	-0.529783	0.643942	0.000000	0.833865	-13.887473	0.000000	0.000000	0.000000	0.000000	0.000000	2
79.084987	6.315140	0.000000	-0.519057	0.515968	0.000000	0.731876	-76.784413	0.000000	0.000000	0.000000	0.000000	0.000000	1
82.193979	6.315140	0.000000	-0.330744	0.198138	0.000000	0.385552	-81.869256	0.000000	0.000000	0.000000	0.000000	0.000000	1
85.302971	6.315140	0.000000	-0.013464	0.067564	0.000000	0.068893	-42.352228	0.000000	0.000000	0.000000	0.000000	0.000000	2
88.411963	6.315140	0.000000	0.018387	0.005100	0.000000	0.019081	-13.408884	0.000000	0.000000	0.000000	0.000000	0.000000	1
91.520955	6.315140	0.000000	0.033630	-0.015395	0.000000	0.036986	0.878877	0.000000	0.000000	0.000000	0.000000	0.000000	1
94.629947	6.315140	0.000000	0.033723	-0.011045	0.000000	0.035486	1.111552	0.000000	0.000000	0.000000	0.000000	0.000000	2
97.738939	6.315140	0.000000	0.032116	-0.012751	0.000000	0.034554	2.262513	0.000000	0.000000	0.000000	0.000000	0.000000	1
100.847931	6.315140	0.000000	-0.023116	0.030485	0.000000	0.038258	6.726266	0.000000	0.000000	0.000000	0.000000	0.000000	2
103.956923	6.315140	0.000000	-0.029223	0.051630	0.000000	0.059327	1.917933	0.000000	0.000000	0.000000	0.000000	0.000000	2
107.065915	6.315140	0.000000	-0.031420	0.019042	0.000000	0.036739	-2.310776	0.000000	0.000000	0.000000	0.000000	0.000000	1
110.174908	6.315140	0.000000	-0.018689	0.008141	0.000000	0.020385	0.836267	0.000000	0.000000	0.000000	0.000000	0.000000	1
113.283900	6.315140	0.000000	-0.016599	0.006555	0.000000	0.017846	2.160167	0.000000	0.000000	0.000000	0.000000	0.000000	1
116.392892	6.315140	0.000000	-0.010414	0.000765	0.000000	0.010442	1.742392	0.000000	0.000000	0.000000	0.000000	0.000000	1
119.501884	6.315140	0.000000	-0.026499	-0.000628	0.000000	0.026506	2.676753	0.000000	0.000000	0.000000	0.000000	0.000000	1
122.610876	6.315140	0.000000	-0.030098	-0.000907	0.000000	0.030112	2.823423	0.000000	0.000000	0.000000	0.000000	0.000000	1
125.719868	6.315140	0.000000	-0.010844	-0.004325	0.000000	0.011675	1.741791	0.000000	0.000000	0.000000	0.000000	0.000000	1
128.828860	6.315140	0.000000	-0.008459	-0.003341	0.000000	0.009095	2.095986	0.000000	0.000000	0.000000	0.000000	0.000000	1
131.937852	6.315140	0.000000	-0.003889	0.003464	0.000000	0.005208	2.161110	0.000000	0.000000	0.000000	0.000000	0.000000	1
135.046844	6.315140	0.000000	-0.007359	0.007007	0.000000	0.010161	0.939963	0.000000	0.000000	0.000000	0.000000	0.000000	1
138.155836	6.315140	0.000000	-0.010753	0.008474	0.000000	0.013691	-0.960203	0.000000	0.000000	0.000000	0.000000	0.000000	1
141.264829	6.315140	0.000000	-0.005195	0.002265	0.000000	0.005667	-1.336794	0.000000	0.000000	0.000000	0.000000	0.000000	1
144.373821	6.315140	0.000000	-0.002306	0.000876	0.000000	0.002467	-0.455203	0.000000	0.000000	0.000000	0.000000	0.000000	1
147.482813	6.315140	0.000000	-0.004237	0.001664	0.000000	0.004552	-1.061100	0.000000	0.000000	0.000000	0.000000	0.000000	1
150.591805	6.315140	0.000000	-0.005139	0.001374	0.000000	0.005320	-1.552530	0.000000	0.000000	0.000000	0.000000	0.000000	1
153.700797	6.315140	0.000000	-0.012941	-0.000714	0.000000	0.012961	-1.168076	0.000000	0.000000	0.000000	0.000000	0.000000	1
156.809789	6.315140	0.000000	-0.010815	0.001690	0.000000	0.010947	-0.763401	0.000000	0.000000	0.000000	0.000000	0.000000	1
159.918781	6.315140	0.000000	-0.008424	0.002966	0.000000	0.008931	-0.508825	0.000000	0.000000	0.000000	0.000000	0.000000	1
4.469176	9.424132	0.000000	0.006331	0.009653	0.000000	0.011544	-0.406507	0.000000	0.000000	0.000000	0.000000	0.000000	1
7.578168	9.424132	0.000000	0.005689	0.009854	0.000000	0.011378	-0.024792	0.000000	0.000000	0.000000	0.000000	0.000000	1
10.687160	9.424132	0.000000	0.006529	0.009470	0.000000	0.011503	1.208656	0.000000	0.000000	0.000000	0.000000	0.000000	1
13.796152	9.424132	0.000000	0.014700	0.011517	0.000000	0.018674	1.713885	0.000000	0.000000	0.000000	0.000000	0.000000	1
16.905145	9.424132	0.000000	0.014399	0.010311	0.000000	0.017711	-0.734556	0.000000	0.000000	0.000000	0.000000	0.000000	1
20.014137	9.424132	0.000000	0.001707	0.003089	0.000000	0.003530	-1.396700	0.000000	0.000000	0.000000	0.000000	0.000000	1
23.123129	9.424132	0.000000	-0.001472	0.003012	0.000000	0.003352	1.457677	0.000000	0.000000	0.000000	0.000000	0.000000	1
26.232121	9.424132	0.000000	0.003537	0.010322	0.000000	0.010911	2.355247	0.000000	0.000000	0.000000	0.000000	0.000000	1
29.341113	9.424132	0.000000	0.005269	0.014007	0.000000	0.014965	1.130679	0.000000	0.000000	0.000000	0.000000	0.000000	1
32.450105	9.424132	0.000000	0.011989	0.014432	0.000000	0.018762	0.751316	0.000000	0.000000	0.000000	0.000000	0.000000	1
35.559097	9.424132	0.000000	0.012653	0.014598	0.000000	0.019319	0.316403	0.000000	0.000000	0.000000	0.000000	0.000000	1
38.668089	9.424132	0.000000	0.005748	0.007770	0.000000	0.009665	0.763999	0.000000	0.000000	0.000000	0.000000	0.000000	1
41.777081	9.424132	0.000000	0.013913	0.015807	0.000000	0.021058	2.483851	0.000000	0.000000	0.000000	0.000000	0.000000	1
44.886073	9.424132	0.000000	0.010551	0.010217	0.000000	0.014687	1.566783	0.000000	0.000000	0.000000	0.000000	0.000000	1
47.995066	9.424132	0.000000	-0.001777	-0.004530	0.000000	0.004866	0.736377	0.000000	0.000000	0.000000	0.000000	0.000000	1
51.104058	9.424132	0.000000	0.000502	-0.001738	0.000000	0.001809	1.304290	0.000000	0.000000	0.000000	0.000000	0.000000	1
54.213050	9.424132	0.000000	0.004402	0.004109	0.000000	0.006021	1.039268	0.000000	0.000000	0.000000	0.000000	0.000000	1
57.322042	9.424132	0.000000	-0.000428	0.009204	0.000000	0.009214	-0.085938	0.000000	0.000000	0.000000	0.000000	0.000000	1
60.431034	9.424132	0.000000	-0.007413	0.010635	0.000000	0.012964	-1.755939	0.000000	0.000000	0.000000	0.000000	0.000000	1
63.540026	9.424132	0.000000	-0.022739	0.007721	0.000000	0.024014	-2.003757	0.000000	0.000000	0.000000	0.000000	0.000000	1
66.649018	9.424132	0.000000	-0.040719	0.007564	0.000000	0.041416	8.567734	0.000000	0.000000	0.000000	0.000000	0.000000	2
69.758010	9.424132	0.000000	-0.150300	0.070067	0.000000	0.165830	85.344575	0.000000	0.000000	0.000000	0.000000	0.000000	1
72.867002	9.424132	0.000000	-0.369412	0.636544	0.000000	0.735971	51.124290	0.000000	0.000000	0.000000	0.000000	0.000000	2
75.975994	9.424132	0.000000	-0.490286	0.635381	0.000000	0.802552	-67.836838	0.000000	0.000000	0.000000	0.000000	0.000000	2
79.084987	9.424132	0.000000	-0.356394	0.625656	0.000000	0.720043	-115.915077	0.000000	0.000000	0.000000	0.000000	0.000000	2
82.193979	9.424132	0.000000	-0.174382	0.302142	0.000000	0.348854	-97.551267	0.000000	0.000000	0.000000	0.000000	0.000000	2
85.302971	9.424132	0.000000	-0.021750	0.106090	0.000000	0.108297	-36.800394	0.000000	0.000000	0.000000	0.000000	0.000000	1
88.411963	9.424132	0.000000	0.004185	0.031149	0.000000	0.031429	-10.714980	0.000000	0.000000	0.000000	0.000000	0.000000	1
91.520955	9.424132	0.000000	0.004894	0.046827	0.000000	0.047082	3.428541	0.000000	0.000000	0.000000	0.000000	0.000000	1
94.629947	9.424132	0.000000	0.035424	0.035042	0.000000	0.049828	3.403648	0.000000	0.000000	0.000000	0.000000	0.000000	1
97.738939	9.424132	0.000000	0.047482	0.038207	0.000000	0.060945	2.679988	0.000000	0.000000	0.000000	0.000000	0.000000	2
100.847931	9.424132	0.000000	-0.033134	0.049094	0.000000	0.059229	0.481608	0.000000	0.000000	0.000000	0.000000	0.000000	1
103.956923	9.424132	0.000000	-0.032311	0.073093	0.000000	0.079916	-5.953293	0.000000	0.000000	0.000000	0.000000	0.000000	2
107.065915	9.424132	0.000000	-0.030985	0.046168	0.000000	0.055601	-14.048138	0.000000	0.000000	0.000000	0.000000	0.000000	2
110.174908	9.424132	0.000000	-0.015789	0.009586	0.000000	0.018472	-12.092501	0.000000	0.000000	0.000000	0.000000	0.000000	1
113.283900	9.424132	0.000000	-0.014661	0.008342	0.000000	0.016869	-4.146771	0.000000	0.000000	0.000000	0.000000	0.000000	1
116.392892	9.424132	0.000000	-0.009407	0.016621	0.000000	0.019099	-2.101315	0.000000	0.000000	0.000000	0.000000	0.000000	1
119.501884	9.424132	0.000000	-0.027178	0.003072	0.000000	0.027351	-2.553086	0.000000	0.000000	0.000000	0.000000	0.000000	1
122.610876	9.424132	0.000000	-0.023779	-0.001828	0.000000	0.023849	-2.504141	0.000000	0.000000	0.000000	0.000000	0.000000	1
125.719868	9.424132	0.000000	-0.010743	-0.004575	0.000000	0.011676	-1.113637	0.000000	0.000000	0.000000	0.000000	0.000000	1
128.828860	9.424132	0.000000	-0.009996	-0.004202	0.000000	0.010844	1.162575	0.000000	0.000000	0.000000	0.000000	0.000000	1
131.937852	9.424132	0.000000	-0.006296	0.001855	0.000000	0.006564	1.610809	0.000000	0.000000	0.000000	0.000000	0.000000	1
135.046844	9.424132	0.000000	-0.001995	0.004017	0.000000	0.004485	0.489625	0.000000	0.000000	0.000000	0.000000	0.000000	1
138.155836	9.424132	0.000000	-0.007211	0.004260	0.000000	0.008376	-0.574209	0.000000	0.000000	0.000000	0.000000	0.000000	1
141.264829	9.424132	0.000000	-0.004326	0.001918	0.000000	0.004732	-0.558033	0.000000	0.000000	0.000000	0.000000	0.000000	1
144.373821	9.424132	0.000000	-0.003201	0.001441	0.000000	0.003510	-0.072385	0.000000	0.000000	0.000000	0.000000	0.000000	1
147.482813	9.424132	0.000000	-0.001820	0.001849	0.000000	0.002595	-0.358312	0.000000	0.000000	0.000000	0.000000	0.000000	1
150.591805	9.424132	0.000000	-0.001636	0.001784	0.000000	0.002421	-0.970319	0.000000	0.000000	0.000000	0.000000	0.000000	1
153.700797	9.424132	0.000000	-0.001140	0.001053	0.000000	0.001552	-1.001554	0.000000	0.000000	0.000000	0.000000	0.000000	1
156.809789	9.424132	0.000000	-0.005153	0.001934	0.000000	0.005504	-0.553816	0.000000	0.000000	0.000000	0.000000	0.000000	1
159.918781	9.424132	0.000000	-0.007025	0.002178	0.000000	0.007355	-0.395540	0.000000	0.000000	0.000000	0.000000	0.000000	1
4.469176	12.533124	0.000000	0.005905	0.011978	0.000000	0.013355	-0.486453	0.000000	0.000000	0.000000	0.000000	0.000000	1
7.578168	12.533124	0.000000	0.003629	0.008839	0.000000	0.009554	-0.361895	0.000000	0.000000	0.000000	0.000000	0.000000	1
10.687160	12.533124	0.000000	0.002537	0.005119	0.000000	0.005713	1.126974	0.000000	0.000000	0.000000	0.000000	0.000000	1
13.796152	12.533124	0.000000	0.005742	0.010738	0.000000	0.012177	2.478566	0.000000	0.000000	0.000000	0.000000	0.000000	1
16.905145	12.533124	0.000000	0.011474	0.018134	0.000000	0.021459	-0.690945	0.000000	0.000000	0.000000	0.000000	0.000000	1
20.014137	12.533124	0.000000	0.001096	0.002538	0.000000	0.002764	-2.183810	0.000000	0.000000	0.000000	0.000000	0.000000	1
23.123129	12.533124	0.000000	-0.000663	0.002426	0.000000	0.002514	0.582361	0.000000	0.000000	0.000000	0.000000	0.000000	1
26.232121	12.533124	0.000000	-0.000056	0.008203	0.000000	0.008203	1.756541	0.000000	0.000000	0.000000	0.000000	0.000000	1
29.341113	12.533124	0.000000	0.002722	0.012857	0.000000	0.013142	0.989101	0.000000	0.000000	0.000000	0.000000	0.000000	1
32.450105	12.533124	0.000000	0.004460	0.008502	0.000000	0.009600	0.784253	0.000000	0.000000	0.000000	0.000000	0.000000	1
35.559097	12.533124	0.000000	0.003295	0.005979	0.000000	0.006826	2.191937	0.000000	0.000000	0.000000	0.000000	0.000000	1
38.668089	12.533124	0.000000	0.006241	0.017755	0.000000	0.018820	1.688039	0.000000	0.000000	0.000000	0.000000	0.000000	1
41.777081	12.533124	0.000000	0.002718	0.005671	0.000000	0.006289	1.156304	0.000000	0.000000	0.000000	0.000000	0.000000	1
44.886073	12.533124	0.000000	-0.009424	0.004238	0.000000	0.010333	4.029347	0.000000	0.000000	0.000000	0.000000	0.000000	1
47.995066	12.533124	0.000000	-0.000485	0.030653	0.000000	0.030657	4.112387	0.000000	0.000000	0.000000	0.000000	0.000000	1
51.104058	12.533124	0.000000	0.001223	0.040395	0.000000	0.040413	0.853023	0.000000	0.000000	0.000000	0.000000	0.000000	1
54.213050	12.533124	0.000000	-0.009547	0.029163	0.000000	0.030686	0.831565	0.000000	0.000000	0.000000	0.000000	0.000000	1
57.322042	12.533124	0.000000	-0.003139	0.017449	0.000000	0.017729	3.755418	0.000000	0.000000	0.000000	0.000000	0.000000	1
60.431034	12.533124	0.000000	0.002168	0.021376	0.000000	0.021486	2.374798	0.000000	0.000000	0.000000	0.000000	0.000000	1
63.540026	12.533124	0.000000	-0.020986	0.015903	0.000000	0.026331	1.365804	0.000000	0.000000	0.000000	0.000000	0.000000	1
66.649018	12.533124	0.000000	-0.040324	0.031132	0.000000	0.050943	13.528930	0.000000	0.000000	0.000000	0.000000	0.000000	2
69.758010	12.533124	0.000000	-0.156433	0.058782	0.000000	0.167113	62.234831	0.000000	0.000000	0.000000	0.000000	0.000000	1
72.867002	12.533124	0.000000	-0.220860	0.423694	0.000000	0.477803	51.942252	0.000000	0.000000	0.000000	0.000000	0.000000	2
75.975994	12.533124	0.000000	-0.121707	0.571681	0.000000	0.584492	-31.364331	0.000000	0.000000	0.000000	0.000000	0.000000	1
79.084987	12.533124	0.000000	-0.075017	0.503737	0.000000	0.509292	-81.167285	0.000000	0.000000	0.000000	0.000000	0.000000	1
82.193979	12.533124	0.000000	-0.136353	0.291469	0.000000	0.321786	-65.582298	0.000000	0.000000	0.000000	0.000000	0.000000	2
85.302971	12.533124	0.000000	-0.117814	0.293447	0.000000	0.316214	-45.401052	0.000000	0.000000	0.000000	0.000000	0.000000	2
88.411963	12.533124	0.000000	-0.007265	0.071231	0.000000	0.071601	-31.797857	0.000000	0.000000	0.000000	0.000000	0.000000	2
91.520955	12.533124	0.000000	0.004989	0.044134	0.000000	0.044415	-2.382668	0.000000	0.000000	0.000000	0.000000	0.000000	1
94.629947	12.533124	0.000000	0.010566	0.058772	0.000000	0.059714	4.083391	0.000000	0.000000	0.000000	0.000000	0.000000	1
97.738939	12.533124	0.000000	0.031799	0.068113	0.000000	0.075170	2.813077	0.000000	0.000000	0.000000	0.000000	0.000000	1
100.847931	12.533124	0.000000	0.037808	0.092929	0.000000	0.100326	-10.292807	0.000000	0.000000	0.000000	0.000000	0.000000	2
103.956923	12.533124	0.000000	-0.014170	0.082523	0.000000	0.083731	-21.327877	0.000000	0.000000	0.000000	0.000000	0.000000	2
107.065915	12.533124	0.000000	-0.003058	0.081546	0.000000	0.081604	-22.624719	0.000000	0.000000	0.000000	0.000000	0.000000	2
110.174908	12.533124	0.000000	0.017475	0.011560	0.000000	0.020953	-16.363357	0.000000	0.000000	0.000000	0.000000	0.000000	2
113.283900	12.533124	0.000000	0.034698	0.020906	0.000000	0.040509	-6.321684	0.000000	0.000000	0.000000	0.000000	0.000000	1
116.392892	12.533124	0.000000	-0.016827	0.034073	0.000000	0.038002	-4.744105	0.000000	0.000000	0.000000	0.000000	0.000000	1
119.501884	12.533124	0.000000	-0.026046	0.025290	0.000000	0.036305	-8.606585	0.000000	0.000000	0.000000	0.000000	0.000000	1
122.610876	12.533124	0.000000	-0.022682	0.011052	0.000000	0.025231	-10.901835	0.000000	0.000000	0.000000	0.000000	0.000000	1
125.719868	12.533124	0.000000	-0.011060	-0.002934	0.000000	0.011443	-9.432955	0.000000	0.000000	0.000000	0.000000	0.000000	1
128.828860	12.533124	0.000000	-0.007766	-0.001788	0.000000	0.007970	-4.091889	0.000000	0.000000	0.000000	0.000000	0.000000	1
131.937852	12.533124	0.000000	-0.007823	0.002568	0.000000	0.008234	0.568974	0.000000	0.000000	0.000000	0.000000	0.000000	1
135.046844	12.533124	0.000000	-0.007184	0.004489	0.000000	0.008471	0.906351	0.000000	0.000000	0.000000	0.000000	0.000000	1
138.155836	12.533124	0.000000	-0.008026	0.004068	0.000000	0.008998	0.262558	0.000000	0.000000	0.000000	0.000000	0.000000	1
141.264829	12.533124	0.000000	-0.006410	0.003561	0.000000	0.007332	-0.044116	0.000000	0.000000	0.000000	0.000000	0.000000	1
144.373821	12.533124	0.000000	-0.003807	0.002221	0.000000	0.004407	-0.318073	0.000000	0.000000	0.000000	0.000000	0.000000	1
147.482813	12.533124	0.000000	-0.000870	0.001649	0.000000	0.001864	-0.033645	0.000000	0.000000	0.000000	0.000000	0.000000	1
150.591805	12.533124	0.000000	-0.000879	0.001617	0.000000	0.001841	0.551670	0.000000	0.000000	0.000000	0.000000	0.000000	1
153.700797	12.533124	0.000000	-0.003556	0.002757	0.000000	0.004500	0.605732	0.000000	0.000000	0.000000	0.000000	0.000000	1
156.809789	12.533124	0.000000	-0.006032	0.003904	0.000000	0.007185	0.235269	0.000000	0.000000	0.000000	0.000000	0.000000	1
159.918781	12.533124	0.000000	-0.006452	0.003976	0.000000	0.007579	-0.018201	0.000000	0.000000	0.000000	0.000000	0.000000	1
4.469176	15.642117	0.000000	0.006400	0.006634	0.000000	0.009218	-0.447166	0.000000	0.000000	0.000000	0.000000	0.000000	1
7.578168	15.642117	0.000000	0.004193	0.005236	0.000000	0.006708	-0.202795	0.000000	0.000000	0.000000	0.000000	0.000000	1
10.687160	15.642117	0.000000	0.003142	0.005224	0.000000	0.006096	0.938927	0.000000	0.000000	0.000000	0.000000	0.000000	1
13.796152	15.642117	0.000000	0.006336	0.011169	0.000000	0.012841	1.857495	0.000000	0.000000	0.000000	0.000000	0.000000	1
16.905145	15.642117	0.000000	0.011357	0.016840	0.000000	0.020312	-0.252554	0.000000	0.000000	0.000000	0.000000	0.000000	1
20.014137	15.642117	0.000000	0.004795	0.007450	0.000000	0.008860	-1.533299	0.000000	0.000000	0.000000	0.000000	0.000000	1
23.123129	15.642117	0.000000	0.003614	0.009461	0.000000	0.010128	-0.983019	0.000000	0.000000	0.000000	0.000000	0.000000	1
26.232121	15.642117	0.000000	-0.002388	0.010707	0.000000	0.010971	-1.633595	0.000000	0.000000	0.000000	0.000000	0.000000	1
29.341113	15.642117	0.000000	0.001686	0.010943	0.000000	0.011073	-1.934767	0.000000	0.000000	0.000000	0.000000	0.000000	1
32.450105	15.642117	0.000000	0.002832	0.008352	0.000000	0.008819	-0.512118	0.000000	0.000000	0.000000	0.000000	0.000000	1
35.559097	15.642117	0.000000	-0.000648	0.008417	0.000000	0.008442	1.371927	0.000000	0.000000	0.000000	0.000000	0.000000	1
38.668089	15.642117	0.000000	-0.000673	0.008846	0.000000	0.008871	1.440309	0.000000	0.000000	0.000000	0.000000	0.000000	1
41.777081	15.642117	0.000000	0.000041	0.009794	0.000000	0.009794	0.691507	0.000000	0.000000	0.000000	0.000000	0.000000	1
44.886073	15.642117	0.000000	-0.004255	0.013220	0.000000	0.013887	2.709355	0.000000	0.000000	0.000000	0.000000	0.000000	1
47.995066	15.642117	0.000000	-0.005861	0.032816	0.000000	0.033335	4.140684	0.000000	0.000000	0.000000	0.000000	0.000000	1
51.104058	15.642117	0.000000	0.000489	0.032158	0.000000	0.032161	1.179854	0.000000	0.000000	0.000000	0.000000	0.000000	1
54.213050	15.642117	0.000000	-0.016499	0.023362	0.000000	0.028601	0.157261	0.000000	0.000000	0.000000	0.000000	0.000000	1
57.322042	15.642117	0.000000	-0.025410	0.020993	0.000000	0.032961	4.413424	0.000000	0.000000	0.000000	0.000000	0.000000	1
60.431034	15.642117	0.000000	-0.020297	0.042065	0.000000	0.046706	4.200725	0.000000	0.000000	0.000000	0.000000	0.000000	1
63.540026	15.642117	0.000000	-0.032883	0.023740	0.000000	0.040557	2.607211	0.000000	0.000000	0.000000	0.000000	0.000000	2
66.649018	15.642117	0.000000	-0.048431	0.018711	0.000000	0.051920	16.223139	0.000000	0.000000	0.000000	0.000000	0.000000	1
69.758010	15.642117	0.000000	-0.180564	0.156295	0.000000	0.238812	26.278607	0.000000	0.000000	0.000000	0.000000	0.000000	2
72.867002	15.642117	0.000000	-0.242976	0.210708	0.000000	0.321614	41.885362	0.000000	0.000000	0.000000	0.000000	0.000000	1
75.975994	15.642117	0.000000	-0.081293	0.488694	0.000000	0.495409	27.979335	0.000000	0.000000	0.000000	0.000000	0.000000	2
79.084987	15.642117	0.000000	-0.067822	0.514412	0.000000	0.518864	-35.550578	0.000000	0.000000	0.000000	0.000000	0.000000	2
82.193979	15.642117	0.000000	-0.086884	0.437199	0.000000	0.445748	-72.928063	0.000000	0.000000	0.000000	0.000000	0.000000	2
85.302971	15.642117	0.000000	-0.032793	0.275919	0.000000	0.277861	-83.019532	0.000000	0.000000	0.000000	0.000000	0.000000	2
88.411963	15.642117	0.000000	-0.004230	0.076449	0.000000	0.076566	-52.808142	0.000000	0.000000	0.000000	0.000000	0.000000	1
91.520955	15.642117	0.000000	0.031162	0.041327	0.000000	0.051759	-8.778861	0.000000	0.000000	0.000000	0.000000	0.000000	1
94.629947	15.642117	0.000000	0.012557	0.059465	0.000000	0.060776	-0.762371	0.000000	0.000000	0.000000	0.000000	0.000000	1
97.738939	15.642117	0.000000	0.034143	0.070746	0.000000	0.078554	2.956096	0.000000	0.000000	0.000000	0.000000	0.000000	1
100.847931	15.642117	0.000000	0.109128	0.139784	0.000000	0.177337	-12.033610	0.000000	0.000000	0.000000	0.000000	0.000000	2
103.956923	15.642117	0.000000	0.080415	0.134949	0.000000	0.157091	-41.643284	0.000000	0.000000	0.000000	0.000000	0.000000	1
107.065915	15.642117	0.000000	0.020786	0.054493	0.000000	0.058323	-42.744611	0.000000	0.000000	0.000000	0.000000	0.000000	1
110.174908	15.642117	0.000000	0.048110	0.057825	0.000000	0.075221	-25.644407	0.000000	0.000000	0.000000	0.000000	0.000000	2
113.283900	15.642117	0.000000	0.042488	0.043327	0.000000	0.060683	-14.478810	0.000000	0.000000	0.000000	0.000000	0.000000	1
116.392892	15.642117	0.000000	0.022224	0.058358	0.000000	0.062447	-17.659260	0.000000	0.000000	0.000000	0.000000	0.000000	2
119.501884	15.642117	0.000000	-0.013328	0.056094	0.000000	0.057656	-29.338647	0.000000	0.000000	0.000000	0.000000	0.000000	1