TITLE = "PIV Result  77 "
VARIABLES = "X (mm)""Y (mm)""Z (mm)""U (m/s)""V (m/s)""W (m/s)""Speed (m/s)""Vorticity""U-std""V-std""W-std""Speed-std""Vorticity-std""Flag"
ZONE T="ZONE 77 "
I= 51 , J= 16 , K= 1 , F=POINT
DT=(DOUBLE DOUBLE DOUBLE DOUBLE DOUBLE DOUBLE DOUBLE DOUBLE DOUBLE DOUBLE DOUBLE DOUBLE DOUBLE DOUBLE)
4.469176	3.206148	0.000000	0.004088	0.006472	0.000000	0.007655	-1.002875	0.000000	0.000000	0.000000	0.000000	0.000000	1
7.578168	3.206148	0.000000	0.002467	0.006769	0.000000	0.007204	-0.733840	0.000000	0.000000	0.000000	0.000000	0.000000	1
10.687160	3.206148	0.000000	0.004639	0.009300	0.000000	0.010393	-0.765856	0.000000	0.000000	0.000000	0.000000	0.000000	1
13.796152	3.206148	0.000000	0.005584	0.010664	0.000000	0.012037	-1.824002	0.000000	0.000000	0.000000	0.000000	0.000000	1
16.905145	3.206148	0.000000	0.002066	0.004670	0.000000	0.005106	-2.667728	0.000000	0.000000	0.000000	0.000000	0.000000	1
20.014137	3.206148	0.000000	0.001843	0.004348	0.000000	0.004722	-1.737402	0.000000	0.000000	0.000000	0.000000	0.000000	1
23.123129	3.206148	0.000000	0.005305	0.011545	0.000000	0.012706	-0.970347	0.000000	0.000000	0.000000	0.000000	0.000000	1
26.232121	3.206148	0.000000	0.002609	0.007636	0.000000	0.008070	-1.505421	0.000000	0.000000	0.000000	0.000000	0.000000	1
29.341113	3.206148	0.000000	0.000802	0.006181	0.000000	0.006233	-2.045122	0.000000	0.000000	0.000000	0.000000	0.000000	1
32.450105	3.206148	0.000000	-0.001155	0.007064	0.000000	0.007158	-3.619534	0.000000	0.000000	0.000000	0.000000	0.000000	1
35.559097	3.206148	0.000000	-0.010469	0.000294	0.000000	0.010474	-5.452253	0.000000	0.000000	0.000000	0.000000	0.000000	1
38.668089	3.206148	0.000000	-0.005767	-0.000972	0.000000	0.005849	-4.818664	0.000000	0.000000	0.000000	0.000000	0.000000	1
41.777081	3.206148	0.000000	-0.000815	-0.001249	0.000000	0.001492	-2.763148	0.000000	0.000000	0.000000	0.000000	0.000000	1
44.886073	3.206148	0.000000	-0.001384	0.000258	0.000000	0.001408	-1.555433	0.000000	0.000000	0.000000	0.000000	0.000000	1
47.995066	3.206148	0.000000	0.000836	0.000485	0.000000	0.000966	-0.569218	0.000000	0.000000	0.000000	0.000000	0.000000	1
51.104058	3.206148	0.000000	0.004049	0.000473	0.000000	0.004077	2.780689	0.000000	0.000000	0.000000	0.000000	0.000000	1
54.213050	3.206148	0.000000	-0.004916	0.000841	0.000000	0.004987	10.837036	0.000000	0.000000	0.000000	0.000000	0.000000	1
57.322042	3.206148	0.000000	-0.007050	0.001362	0.000000	0.007180	17.657613	0.000000	0.000000	0.000000	0.000000	0.000000	1
60.431034	3.206148	0.000000	-0.004132	0.002183	0.000000	0.004673	9.611868	0.000000	0.000000	0.000000	0.000000	0.000000	1
63.540026	3.206148	0.000000	-0.005171	0.000732	0.000000	0.005223	-0.540598	0.000000	0.000000	0.000000	0.000000	0.000000	1
66.649018	3.206148	0.000000	-0.002760	-0.000406	0.000000	0.002790	-2.603512	0.000000	0.000000	0.000000	0.000000	0.000000	1
69.758010	3.206148	0.000000	-0.003976	-0.003690	0.000000	0.005424	-7.848551	0.000000	0.000000	0.000000	0.000000	0.000000	1
72.867002	3.206148	0.000000	-0.032794	-0.028454	0.000000	0.043418	-4.389623	0.000000	0.000000	0.000000	0.000000	0.000000	2
75.975994	3.206148	0.000000	-0.000870	-0.026005	0.000000	0.026020	56.458400	0.000000	0.000000	0.000000	0.000000	0.000000	2
79.084987	3.206148	0.000000	0.006899	0.111986	0.000000	0.112198	105.920932	0.000000	0.000000	0.000000	0.000000	0.000000	2
82.193979	3.206148	0.000000	0.074152	0.644860	0.000000	0.649110	75.093706	0.000000	0.000000	0.000000	0.000000	0.000000	2
85.302971	3.206148	0.000000	0.093574	0.780989	0.000000	0.786575	50.523835	0.000000	0.000000	0.000000	0.000000	0.000000	2
88.411963	3.206148	0.000000	0.094600	0.935409	0.000000	0.940180	50.573995	0.000000	0.000000	0.000000	0.000000	0.000000	2
91.520955	3.206148	0.000000	0.076103	0.974232	0.000000	0.977200	-146.698025	0.000000	0.000000	0.000000	0.000000	0.000000	2
94.629947	3.206148	0.000000	0.056186	0.044362	0.000000	0.071588	-171.834671	0.000000	0.000000	0.000000	0.000000	0.000000	1
97.738939	3.206148	0.000000	-0.001632	0.035213	0.000000	0.035251	-5.975608	0.000000	0.000000	0.000000	0.000000	0.000000	2
100.847931	3.206148	0.000000	-0.000943	0.001112	0.000000	0.001458	-10.066071	0.000000	0.000000	0.000000	0.000000	0.000000	1
103.956923	3.206148	0.000000	-0.002724	0.000263	0.000000	0.002737	-5.563510	0.000000	0.000000	0.000000	0.000000	0.000000	1
107.065915	3.206148	0.000000	-0.001033	-0.000058	0.000000	0.001034	-0.498933	0.000000	0.000000	0.000000	0.000000	0.000000	1
110.174908	3.206148	0.000000	0.000254	-0.000394	0.000000	0.000469	0.615909	0.000000	0.000000	0.000000	0.000000	0.000000	1
113.283900	3.206148	0.000000	0.000530	-0.000101	0.000000	0.000539	1.623995	0.000000	0.000000	0.000000	0.000000	0.000000	1
116.392892	3.206148	0.000000	0.003486	0.000528	0.000000	0.003525	1.805924	0.000000	0.000000	0.000000	0.000000	0.000000	1
119.501884	3.206148	0.000000	0.001641	0.000146	0.000000	0.001647	1.031538	0.000000	0.000000	0.000000	0.000000	0.000000	1
122.610876	3.206148	0.000000	0.000692	-0.000185	0.000000	0.000716	0.377605	0.000000	0.000000	0.000000	0.000000	0.000000	1
125.719868	3.206148	0.000000	0.000040	-0.000460	0.000000	0.000462	0.344383	0.000000	0.000000	0.000000	0.000000	0.000000	1
128.828860	3.206148	0.000000	0.001057	0.000259	0.000000	0.001088	1.119577	0.000000	0.000000	0.000000	0.000000	0.000000	1
131.937852	3.206148	0.000000	0.001256	0.000772	0.000000	0.001474	1.935179	0.000000	0.000000	0.000000	0.000000	0.000000	1
135.046844	3.206148	0.000000	-0.002328	0.005264	0.000000	0.005756	1.754601	0.000000	0.000000	0.000000	0.000000	0.000000	1
138.155836	3.206148	0.000000	-0.006535	0.010274	0.000000	0.012177	1.490696	0.000000	0.000000	0.000000	0.000000	0.000000	1
141.264829	3.206148	0.000000	-0.001908	0.010314	0.000000	0.010489	1.967401	0.000000	0.000000	0.000000	0.000000	0.000000	1
144.373821	3.206148	0.000000	-0.000560	0.006823	0.000000	0.006846	1.597725	0.000000	0.000000	0.000000	0.000000	0.000000	1
147.482813	3.206148	0.000000	-0.006355	0.005302	0.000000	0.008277	0.354370	0.000000	0.000000	0.000000	0.000000	0.000000	1
150.591805	3.206148	0.000000	-0.006320	0.005201	0.000000	0.008185	-0.332425	0.000000	0.000000	0.000000	0.000000	0.000000	1
153.700797	3.206148	0.000000	-0.003075	0.003187	0.000000	0.004428	-0.056974	0.000000	0.000000	0.000000	0.000000	0.000000	1
156.809789	3.206148	0.000000	-0.002840	0.003032	0.000000	0.004154	0.243701	0.000000	0.000000	0.000000	0.000000	0.000000	1
159.918781	3.206148	0.000000	-0.000844	0.002666	0.000000	0.002796	0.098759	0.000000	0.000000	0.000000	0.000000	0.000000	1
4.469176	6.315140	0.000000	0.006466	0.006790	0.000000	0.009376	-0.422183	0.000000	0.000000	0.000000	0.000000	0.000000	1
7.578168	6.315140	0.000000	0.006485	0.006653	0.000000	0.009291	-0.070087	0.000000	0.000000	0.000000	0.000000	0.000000	1
10.687160	6.315140	0.000000	0.009185	0.009796	0.000000	0.013428	-0.117964	0.000000	0.000000	0.000000	0.000000	0.000000	1
13.796152	6.315140	0.000000	0.008416	0.009177	0.000000	0.012451	-0.793180	0.000000	0.000000	0.000000	0.000000	0.000000	1
16.905145	6.315140	0.000000	0.010272	0.010160	0.000000	0.014448	-1.031956	0.000000	0.000000	0.000000	0.000000	0.000000	1
20.014137	6.315140	0.000000	0.010278	0.009997	0.000000	0.014338	-0.621438	0.000000	0.000000	0.000000	0.000000	0.000000	1
23.123129	6.315140	0.000000	0.007026	0.008476	0.000000	0.011009	-0.369439	0.000000	0.000000	0.000000	0.000000	0.000000	1
26.232121	6.315140	0.000000	0.005492	0.009400	0.000000	0.010887	-0.657211	0.000000	0.000000	0.000000	0.000000	0.000000	1
29.341113	6.315140	0.000000	0.006053	0.007855	0.000000	0.009917	-1.054609	0.000000	0.000000	0.000000	0.000000	0.000000	1
32.450105	6.315140	0.000000	0.006832	0.005912	0.000000	0.009035	-1.732093	0.000000	0.000000	0.000000	0.000000	0.000000	1
35.559097	6.315140	0.000000	0.008973	0.009398	0.000000	0.012994	-3.207648	0.000000	0.000000	0.000000	0.000000	0.000000	1
38.668089	6.315140	0.000000	0.006157	0.004940	0.000000	0.007894	-4.191363	0.000000	0.000000	0.000000	0.000000	0.000000	1
41.777081	6.315140	0.000000	0.005465	0.000587	0.000000	0.005496	-3.083574	0.000000	0.000000	0.000000	0.000000	0.000000	1
44.886073	6.315140	0.000000	0.005033	0.000248	0.000000	0.005039	-1.332680	0.000000	0.000000	0.000000	0.000000	0.000000	1
47.995066	6.315140	0.000000	0.002242	0.000030	0.000000	0.002242	0.744437	0.000000	0.000000	0.000000	0.000000	0.000000	1
51.104058	6.315140	0.000000	0.001232	-0.000633	0.000000	0.001385	5.873757	0.000000	0.000000	0.000000	0.000000	0.000000	1
54.213050	6.315140	0.000000	-0.043118	-0.008177	0.000000	0.043887	15.772375	0.000000	0.000000	0.000000	0.000000	0.000000	1
57.322042	6.315140	0.000000	-0.062070	-0.000996	0.000000	0.062078	29.104852	0.000000	0.000000	0.000000	0.000000	0.000000	1
60.431034	6.315140	0.000000	-0.013490	0.052471	0.000000	0.054177	21.602980	0.000000	0.000000	0.000000	0.000000	0.000000	1
63.540026	6.315140	0.000000	-0.015523	0.035081	0.000000	0.038362	3.619817	0.000000	0.000000	0.000000	0.000000	0.000000	1
66.649018	6.315140	0.000000	-0.000491	0.020545	0.000000	0.020551	0.042719	0.000000	0.000000	0.000000	0.000000	0.000000	1
69.758010	6.315140	0.000000	-0.009358	-0.004071	0.000000	0.010205	-0.426356	0.000000	0.000000	0.000000	0.000000	0.000000	1
72.867002	6.315140	0.000000	-0.008639	-0.033352	0.000000	0.034453	11.508355	0.000000	0.000000	0.000000	0.000000	0.000000	1
75.975994	6.315140	0.000000	0.008501	0.015954	0.000000	0.018077	84.003044	0.000000	0.000000	0.000000	0.000000	0.000000	2
79.084987	6.315140	0.000000	0.029659	0.593982	0.000000	0.594722	112.321175	0.000000	0.000000	0.000000	0.000000	0.000000	1
82.193979	6.315140	0.000000	0.052678	0.695738	0.000000	0.697730	73.765267	0.000000	0.000000	0.000000	0.000000	0.000000	1
85.302971	6.315140	0.000000	0.095627	0.840708	0.000000	0.846129	68.969624	0.000000	0.000000	0.000000	0.000000	0.000000	1
88.411963	6.315140	0.000000	0.091521	1.013056	0.000000	1.017182	44.573927	0.000000	0.000000	0.000000	0.000000	0.000000	1
91.520955	6.315140	0.000000	0.060685	1.256879	0.000000	1.258343	-150.834489	0.000000	0.000000	0.000000	0.000000	0.000000	1
94.629947	6.315140	0.000000	0.045288	0.034953	0.000000	0.057208	-158.518633	0.000000	0.000000	0.000000	0.000000	0.000000	1
97.738939	6.315140	0.000000	0.012092	0.035473	0.000000	0.037478	-0.902402	0.000000	0.000000	0.000000	0.000000	0.000000	1
100.847931	6.315140	0.000000	0.018912	0.040296	0.000000	0.044513	-7.361766	0.000000	0.000000	0.000000	0.000000	0.000000	1
103.956923	6.315140	0.000000	0.003218	0.004618	0.000000	0.005628	-5.255008	0.000000	0.000000	0.000000	0.000000	0.000000	1
107.065915	6.315140	0.000000	-0.001486	0.003565	0.000000	0.003862	-0.521677	0.000000	0.000000	0.000000	0.000000	0.000000	1
110.174908	6.315140	0.000000	-0.003200	0.000654	0.000000	0.003266	-0.851929	0.000000	0.000000	0.000000	0.000000	0.000000	1
113.283900	6.315140	0.000000	-0.004515	-0.001138	0.000000	0.004657	-0.662259	0.000000	0.000000	0.000000	0.000000	0.000000	1
116.392892	6.315140	0.000000	-0.003161	-0.000262	0.000000	0.003171	0.211046	0.000000	0.000000	0.000000	0.000000	0.000000	1
119.501884	6.315140	0.000000	-0.000761	0.000335	0.000000	0.000831	0.306379	0.000000	0.000000	0.000000	0.000000	0.000000	1
122.610876	6.315140	0.000000	-0.000569	0.000568	0.000000	0.000804	0.103629	0.000000	0.000000	0.000000	0.000000	0.000000	1
125.719868	6.315140	0.000000	-0.002006	-0.001333	0.000000	0.002409	0.342355	0.000000	0.000000	0.000000	0.000000	0.000000	1
128.828860	6.315140	0.000000	0.000591	-0.001411	0.000000	0.001530	1.945993	0.000000	0.000000	0.000000	0.000000	0.000000	1
131.937852	6.315140	0.000000	-0.003572	0.003554	0.000000	0.005038	2.808071	0.000000	0.000000	0.000000	0.000000	0.000000	1
135.046844	6.315140	0.000000	-0.004644	0.005214	0.000000	0.006982	1.772865	0.000000	0.000000	0.000000	0.000000	0.000000	1
138.155836	6.315140	0.000000	-0.004751	0.008198	0.000000	0.009475	1.125173	0.000000	0.000000	0.000000	0.000000	0.000000	1
141.264829	6.315140	0.000000	-0.012050	0.009813	0.000000	0.015540	1.016678	0.000000	0.000000	0.000000	0.000000	0.000000	1
144.373821	6.315140	0.000000	-0.010622	0.007552	0.000000	0.013034	0.691657	0.000000	0.000000	0.000000	0.000000	0.000000	1
147.482813	6.315140	0.000000	-0.003302	0.007480	0.000000	0.008176	0.605217	0.000000	0.000000	0.000000	0.000000	0.000000	1
150.591805	6.315140	0.000000	-0.007295	0.008652	0.000000	0.011317	0.096070	0.000000	0.000000	0.000000	0.000000	0.000000	1
153.700797	6.315140	0.000000	-0.005011	0.004631	0.000000	0.006823	-0.039023	0.000000	0.000000	0.000000	0.000000	0.000000	1
156.809789	6.315140	0.000000	-0.003926	0.004181	0.000000	0.005735	0.773013	0.000000	0.000000	0.000000	0.000000	0.000000	1
159.918781	6.315140	0.000000	-0.000613	0.004306	0.000000	0.004349	1.073353	0.000000	0.000000	0.000000	0.000000	0.000000	1
4.469176	9.424132	0.000000	0.005335	0.006304	0.000000	0.008258	0.548604	0.000000	0.000000	0.000000	0.000000	0.000000	1
7.578168	9.424132	0.000000	0.005650	0.005459	0.000000	0.007857	1.381059	0.000000	0.000000	0.000000	0.000000	0.000000	1
10.687160	9.424132	0.000000	0.008833	0.007528	0.000000	0.011606	2.269938	0.000000	0.000000	0.000000	0.000000	0.000000	1
13.796152	9.424132	0.000000	0.008685	0.008258	0.000000	0.011985	1.931089	0.000000	0.000000	0.000000	0.000000	0.000000	1
16.905145	9.424132	0.000000	0.008174	0.008209	0.000000	0.011584	1.486791	0.000000	0.000000	0.000000	0.000000	0.000000	1
20.014137	9.424132	0.000000	0.008401	0.009143	0.000000	0.012417	1.082965	0.000000	0.000000	0.000000	0.000000	0.000000	1
23.123129	9.424132	0.000000	0.007201	0.010366	0.000000	0.012622	0.418368	0.000000	0.000000	0.000000	0.000000	0.000000	1
26.232121	9.424132	0.000000	0.004099	0.009699	0.000000	0.010529	-0.359882	0.000000	0.000000	0.000000	0.000000	0.000000	1
29.341113	9.424132	0.000000	0.003796	0.008493	0.000000	0.009303	-1.115314	0.000000	0.000000	0.000000	0.000000	0.000000	1
32.450105	9.424132	0.000000	0.008147	0.007798	0.000000	0.011277	-0.131430	0.000000	0.000000	0.000000	0.000000	0.000000	1
35.559097	9.424132	0.000000	0.010228	0.010511	0.000000	0.014666	0.690411	0.000000	0.000000	0.000000	0.000000	0.000000	1
38.668089	9.424132	0.000000	0.017510	0.011972	0.000000	0.021212	-1.591859	0.000000	0.000000	0.000000	0.000000	0.000000	1
41.777081	9.424132	0.000000	0.010836	0.004332	0.000000	0.011670	-2.878797	0.000000	0.000000	0.000000	0.000000	0.000000	1
44.886073	9.424132	0.000000	0.006635	-0.001970	0.000000	0.006922	1.807794	0.000000	0.000000	0.000000	0.000000	0.000000	1
47.995066	9.424132	0.000000	0.005738	0.003159	0.000000	0.006550	10.608718	0.000000	0.000000	0.000000	0.000000	0.000000	1
51.104058	9.424132	0.000000	-0.001356	0.030513	0.000000	0.030543	25.189825	0.000000	0.000000	0.000000	0.000000	0.000000	1
54.213050	9.424132	0.000000	-0.102863	0.061453	0.000000	0.119822	37.297910	0.000000	0.000000	0.000000	0.000000	0.000000	2
57.322042	9.424132	0.000000	-0.138905	0.089485	0.000000	0.165233	45.367227	0.000000	0.000000	0.000000	0.000000	0.000000	2
60.431034	9.424132	0.000000	-0.123930	0.181256	0.000000	0.219573	25.663040	0.000000	0.000000	0.000000	0.000000	0.000000	1
63.540026	9.424132	0.000000	-0.070280	0.118712	0.000000	0.137956	-1.982264	0.000000	0.000000	0.000000	0.000000	0.000000	1
66.649018	9.424132	0.000000	-0.039840	0.050633	0.000000	0.064428	4.240030	0.000000	0.000000	0.000000	0.000000	0.000000	1
69.758010	9.424132	0.000000	-0.056310	0.010896	0.000000	0.057354	27.488182	0.000000	0.000000	0.000000	0.000000	0.000000	2
72.867002	9.424132	0.000000	-0.058184	0.008734	0.000000	0.058836	61.796140	0.000000	0.000000	0.000000	0.000000	0.000000	1
75.975994	9.424132	0.000000	-0.021095	0.156059	0.000000	0.157478	130.382801	0.000000	0.000000	0.000000	0.000000	0.000000	2
79.084987	9.424132	0.000000	-0.005833	0.624376	0.000000	0.624404	142.125599	0.000000	0.000000	0.000000	0.000000	0.000000	1
82.193979	9.424132	0.000000	0.013320	0.812755	0.000000	0.812864	100.899369	0.000000	0.000000	0.000000	0.000000	0.000000	1
85.302971	9.424132	0.000000	-0.044217	1.024422	0.000000	1.025376	59.040104	0.000000	0.000000	0.000000	0.000000	0.000000	1
88.411963	9.424132	0.000000	-0.015242	1.156727	0.000000	1.156827	-35.526478	0.000000	0.000000	0.000000	0.000000	0.000000	2
91.520955	9.424132	0.000000	0.027322	0.701224	0.000000	0.701756	-150.230382	0.000000	0.000000	0.000000	0.000000	0.000000	2
94.629947	9.424132	0.000000	0.017767	0.006601	0.000000	0.018954	-100.988448	0.000000	0.000000	0.000000	0.000000	0.000000	1
97.738939	9.424132	0.000000	0.018676	0.035070	0.000000	0.039733	4.576777	0.000000	0.000000	0.000000	0.000000	0.000000	1
100.847931	9.424132	0.000000	0.015741	0.035603	0.000000	0.038928	-1.483607	0.000000	0.000000	0.000000	0.000000	0.000000	1
103.956923	9.424132	0.000000	0.003772	0.008802	0.000000	0.009576	-1.798347	0.000000	0.000000	0.000000	0.000000	0.000000	1
107.065915	9.424132	0.000000	-0.001474	0.008769	0.000000	0.008892	2.164974	0.000000	0.000000	0.000000	0.000000	0.000000	1
110.174908	9.424132	0.000000	0.002908	0.012681	0.000000	0.013011	-0.457010	0.000000	0.000000	0.000000	0.000000	0.000000	1
113.283900	9.424132	0.000000	0.002979	0.004345	0.000000	0.005268	-2.474484	0.000000	0.000000	0.000000	0.000000	0.000000	1
116.392892	9.424132	0.000000	-0.000291	0.000896	0.000000	0.000942	-1.064953	0.000000	0.000000	0.000000	0.000000	0.000000	1
119.501884	9.424132	0.000000	0.000205	-0.000138	0.000000	0.000247	0.122515	0.000000	0.000000	0.000000	0.000000	0.000000	1
122.610876	9.424132	0.000000	0.001171	0.001397	0.000000	0.001823	0.435741	0.000000	0.000000	0.000000	0.000000	0.000000	1
125.719868	9.424132	0.000000	-0.003648	0.002214	0.000000	0.004267	0.385366	0.000000	0.000000	0.000000	0.000000	0.000000	1
128.828860	9.424132	0.000000	-0.003286	0.002186	0.000000	0.003947	1.817689	0.000000	0.000000	0.000000	0.000000	0.000000	1
131.937852	9.424132	0.000000	-0.016021	0.009958	0.000000	0.018864	1.889125	0.000000	0.000000	0.000000	0.000000	0.000000	1
135.046844	9.424132	0.000000	-0.009431	0.007775	0.000000	0.012222	0.369266	0.000000	0.000000	0.000000	0.000000	0.000000	1
138.155836	9.424132	0.000000	-0.003563	0.006753	0.000000	0.007635	-0.369968	0.000000	0.000000	0.000000	0.000000	0.000000	1
141.264829	9.424132	0.000000	-0.012266	0.009995	0.000000	0.015823	-0.630474	0.000000	0.000000	0.000000	0.000000	0.000000	1
144.373821	9.424132	0.000000	-0.011153	0.008443	0.000000	0.013988	0.048266	0.000000	0.000000	0.000000	0.000000	0.000000	1
147.482813	9.424132	0.000000	-0.005139	0.006546	0.000000	0.008322	0.888452	0.000000	0.000000	0.000000	0.000000	0.000000	1
150.591805	9.424132	0.000000	-0.010321	0.010757	0.000000	0.014908	0.334975	0.000000	0.000000	0.000000	0.000000	0.000000	1
153.700797	9.424132	0.000000	-0.005897	0.007143	0.000000	0.009263	-0.040503	0.000000	0.000000	0.000000	0.000000	0.000000	1
156.809789	9.424132	0.000000	-0.008272	0.005822	0.000000	0.010116	0.745744	0.000000	0.000000	0.000000	0.000000	0.000000	1
159.918781	9.424132	0.000000	-0.008693	0.006005	0.000000	0.010565	1.058725	0.000000	0.000000	0.000000	0.000000	0.000000	1
4.469176	12.533124	0.000000	0.003118	0.003454	0.000000	0.004653	-0.022704	0.000000	0.000000	0.000000	0.000000	0.000000	1
7.578168	12.533124	0.000000	0.000949	0.003218	0.000000	0.003355	-0.435152	0.000000	0.000000	0.000000	0.000000	0.000000	1
10.687160	12.533124	0.000000	-0.002932	0.005814	0.000000	0.006512	-0.335415	0.000000	0.000000	0.000000	0.000000	0.000000	1
13.796152	12.533124	0.000000	-0.004337	0.009035	0.000000	0.010022	0.191207	0.000000	0.000000	0.000000	0.000000	0.000000	1
16.905145	12.533124	0.000000	0.002096	0.006322	0.000000	0.006660	0.807221	0.000000	0.000000	0.000000	0.000000	0.000000	1
20.014137	12.533124	0.000000	0.003666	0.007707	0.000000	0.008535	0.982170	0.000000	0.000000	0.000000	0.000000	0.000000	1
23.123129	12.533124	0.000000	0.005081	0.007281	0.000000	0.008879	0.665019	0.000000	0.000000	0.000000	0.000000	0.000000	1
26.232121	12.533124	0.000000	0.009360	0.010964	0.000000	0.014416	0.227643	0.000000	0.000000	0.000000	0.000000	0.000000	1
29.341113	12.533124	0.000000	0.012579	0.015012	0.000000	0.019585	-1.076889	0.000000	0.000000	0.000000	0.000000	0.000000	1
32.450105	12.533124	0.000000	0.005437	0.006039	0.000000	0.008126	-0.659302	0.000000	0.000000	0.000000	0.000000	0.000000	1
35.559097	12.533124	0.000000	0.002463	0.003391	0.000000	0.004191	1.590600	0.000000	0.000000	0.000000	0.000000	0.000000	1
38.668089	12.533124	0.000000	0.013885	0.009145	0.000000	0.016626	1.762535	0.000000	0.000000	0.000000	0.000000	0.000000	1
41.777081	12.533124	0.000000	0.021223	0.009669	0.000000	0.023322	1.989708	0.000000	0.000000	0.000000	0.000000	0.000000	1
44.886073	12.533124	0.000000	-0.000625	0.003706	0.000000	0.003758	10.491775	0.000000	0.000000	0.000000	0.000000	0.000000	1
47.995066	12.533124	0.000000	-0.037567	0.022170	0.000000	0.043621	29.260042	0.000000	0.000000	0.000000	0.000000	0.000000	1
51.104058	12.533124	0.000000	-0.053261	0.063712	0.000000	0.083042	49.432263	0.000000	0.000000	0.000000	0.000000	0.000000	1
54.213050	12.533124	0.000000	-0.246688	0.187944	0.000000	0.310126	44.272127	0.000000	0.000000	0.000000	0.000000	0.000000	1
57.322042	12.533124	0.000000	-0.255297	0.218945	0.000000	0.336323	29.337810	0.000000	0.000000	0.000000	0.000000	0.000000	1
60.431034	12.533124	0.000000	-0.189921	0.249608	0.000000	0.313647	9.330284	0.000000	0.000000	0.000000	0.000000	0.000000	1
63.540026	12.533124	0.000000	-0.090558	0.141580	0.000000	0.168065	-0.909477	0.000000	0.000000	0.000000	0.000000	0.000000	2
66.649018	12.533124	0.000000	-0.070905	0.096562	0.000000	0.119799	29.660756	0.000000	0.000000	0.000000	0.000000	0.000000	1
69.758010	12.533124	0.000000	-0.207782	0.087535	0.000000	0.225468	47.772738	0.000000	0.000000	0.000000	0.000000	0.000000	2
72.867002	12.533124	0.000000	-0.269988	0.189334	0.000000	0.329759	57.860534	0.000000	0.000000	0.000000	0.000000	0.000000	2
75.975994	12.533124	0.000000	-0.260146	0.324409	0.000000	0.415834	92.243979	0.000000	0.000000	0.000000	0.000000	0.000000	1
79.084987	12.533124	0.000000	-0.233867	0.511424	0.000000	0.562360	103.489200	0.000000	0.000000	0.000000	0.000000	0.000000	1
82.193979	12.533124	0.000000	-0.172555	0.845246	0.000000	0.862680	69.875000	0.000000	0.000000	0.000000	0.000000	0.000000	2
85.302971	12.533124	0.000000	-0.084448	1.080107	0.000000	1.083403	-13.014530	0.000000	0.000000	0.000000	0.000000	0.000000	2
88.411963	12.533124	0.000000	-0.008164	0.623361	0.000000	0.623415	-102.578404	0.000000	0.000000	0.000000	0.000000	0.000000	2
91.520955	12.533124	0.000000	0.045463	0.032052	0.000000	0.055626	-96.339194	0.000000	0.000000	0.000000	0.000000	0.000000	1
94.629947	12.533124	0.000000	0.018910	0.008679	0.000000	0.020806	-28.998783	0.000000	0.000000	0.000000	0.000000	0.000000	1
97.738939	12.533124	0.000000	0.008831	0.002743	0.000000	0.009247	0.890656	0.000000	0.000000	0.000000	0.000000	0.000000	1
100.847931	12.533124	0.000000	0.001037	0.008391	0.000000	0.008455	-1.435914	0.000000	0.000000	0.000000	0.000000	0.000000	1
103.956923	12.533124	0.000000	0.003019	0.010024	0.000000	0.010469	0.498123	0.000000	0.000000	0.000000	0.000000	0.000000	1
107.065915	12.533124	0.000000	-0.012452	0.024823	0.000000	0.027771	3.768879	0.000000	0.000000	0.000000	0.000000	0.000000	1
110.174908	12.533124	0.000000	-0.013097	0.028048	0.000000	0.030955	-0.809873	0.000000	0.000000	0.000000	0.000000	0.000000	1
113.283900	12.533124	0.000000	0.003574	0.004335	0.000000	0.005619	-2.740145	0.000000	0.000000	0.000000	0.000000	0.000000	1
116.392892	12.533124	0.000000	0.000528	0.000960	0.000000	0.001096	-0.255511	0.000000	0.000000	0.000000	0.000000	0.000000	1
119.501884	12.533124	0.000000	0.000099	0.001668	0.000000	0.001671	1.354959	0.000000	0.000000	0.000000	0.000000	0.000000	1
122.610876	12.533124	0.000000	-0.002938	0.005212	0.000000	0.005983	1.725892	0.000000	0.000000	0.000000	0.000000	0.000000	1
125.719868	12.533124	0.000000	-0.004228	0.003369	0.000000	0.005406	1.040375	0.000000	0.000000	0.000000	0.000000	0.000000	1
128.828860	12.533124	0.000000	-0.004055	0.003739	0.000000	0.005516	1.381497	0.000000	0.000000	0.000000	0.000000	0.000000	1
131.937852	12.533124	0.000000	-0.011185	0.009076	0.000000	0.014404	1.242208	0.000000	0.000000	0.000000	0.000000	0.000000	1
135.046844	12.533124	0.000000	-0.009664	0.008030	0.000000	0.012565	0.750660	0.000000	0.000000	0.000000	0.000000	0.000000	1
138.155836	12.533124	0.000000	-0.001457	0.005668	0.000000	0.005852	0.120825	0.000000	0.000000	0.000000	0.000000	0.000000	1
141.264829	12.533124	0.000000	-0.001788	0.001621	0.000000	0.002413	0.085147	0.000000	0.000000	0.000000	0.000000	0.000000	1
144.373821	12.533124	0.000000	-0.011594	0.010099	0.000000	0.015376	0.170164	0.000000	0.000000	0.000000	0.000000	0.000000	1
147.482813	12.533124	0.000000	-0.012437	0.011236	0.000000	0.016761	-0.884687	0.000000	0.000000	0.000000	0.000000	0.000000	1
150.591805	12.533124	0.000000	-0.009563	0.004958	0.000000	0.010772	0.154367	0.000000	0.000000	0.000000	0.000000	0.000000	1
153.700797	12.533124	0.000000	-0.007934	0.004627	0.000000	0.009185	0.868013	0.000000	0.000000	0.000000	0.000000	0.000000	1
156.809789	12.533124	0.000000	-0.008541	0.005561	0.000000	0.010192	-0.501096	0.000000	0.000000	0.000000	0.000000	0.000000	1
159.918781	12.533124	0.000000	-0.008613	0.005621	0.000000	0.010285	-0.974806	0.000000	0.000000	0.000000	0.000000	0.000000	1
4.469176	15.642117	0.000000	0.000860	0.003297	0.000000	0.003407	0.715375	0.000000	0.000000	0.000000	0.000000	0.000000	1
7.578168	15.642117	0.000000	0.017988	0.012194	0.000000	0.021731	-1.090420	0.000000	0.000000	0.000000	0.000000	0.000000	1
10.687160	15.642117	0.000000	0.013688	0.011585	0.000000	0.017932	-2.740486	0.000000	0.000000	0.000000	0.000000	0.000000	1
13.796152	15.642117	0.000000	0.006400	0.009181	0.000000	0.011191	-2.030252	0.000000	0.000000	0.000000	0.000000	0.000000	1
16.905145	15.642117	0.000000	0.000594	0.007348	0.000000	0.007372	-0.467184	0.000000	0.000000	0.000000	0.000000	0.000000	1
20.014137	15.642117	0.000000	0.002531	0.007713	0.000000	0.008118	0.211978	0.000000	0.000000	0.000000	0.000000	0.000000	1
23.123129	15.642117	0.000000	0.003913	0.005094	0.000000	0.006423	0.610172	0.000000	0.000000	0.000000	0.000000	0.000000	1
26.232121	15.642117	0.000000	0.009534	0.010174	0.000000	0.013943	1.042920	0.000000	0.000000	0.000000	0.000000	0.000000	1
29.341113	15.642117	0.000000	0.008115	0.009068	0.000000	0.012168	0.043299	0.000000	0.000000	0.000000	0.000000	0.000000	1
32.450105	15.642117	0.000000	0.004436	0.005502	0.000000	0.007068	-0.828972	0.000000	0.000000	0.000000	0.000000	0.000000	1
35.559097	15.642117	0.000000	0.003248	0.003810	0.000000	0.005006	-0.330814	0.000000	0.000000	0.000000	0.000000	0.000000	1
38.668089	15.642117	0.000000	0.003206	0.002699	0.000000	0.004191	3.448672	0.000000	0.000000	0.000000	0.000000	0.000000	1
41.777081	15.642117	0.000000	0.010572	0.005416	0.000000	0.011879	15.929476	0.000000	0.000000	0.000000	0.000000	0.000000	1
44.886073	15.642117	0.000000	-0.023065	0.032476	0.000000	0.039833	36.481607	0.000000	0.000000	0.000000	0.000000	0.000000	1
47.995066	15.642117	0.000000	-0.078734	0.098402	0.000000	0.126024	48.441287	0.000000	0.000000	0.000000	0.000000	0.000000	2
51.104058	15.642117	0.000000	-0.236378	0.174070	0.000000	0.293556	46.703928	0.000000	0.000000	0.000000	0.000000	0.000000	1
54.213050	15.642117	0.000000	-0.245437	0.240950	0.000000	0.343942	28.148905	0.000000	0.000000	0.000000	0.000000	0.000000	1
57.322042	15.642117	0.000000	-0.261722	0.262781	0.000000	0.370880	4.922269	0.000000	0.000000	0.000000	0.000000	0.000000	1
60.431034	15.642117	0.000000	-0.219219	0.244010	0.000000	0.328021	1.468427	0.000000	0.000000	0.000000	0.000000	0.000000	1
63.540026	15.642117	0.000000	-0.166566	0.210665	0.000000	0.268559	25.845231	0.000000	0.000000	0.000000	0.000000	0.000000	2
66.649018	15.642117	0.000000	-0.201961	0.208124	0.000000	0.290007	64.845371	0.000000	0.000000	0.000000	0.000000	0.000000	2
69.758010	15.642117	0.000000	-0.281591	0.518486	0.000000	0.590018	37.287858	0.000000	0.000000	0.000000	0.000000	0.000000	2
72.867002	15.642117	0.000000	-0.274573	0.423611	0.000000	0.504813	-9.876751	0.000000	0.000000	0.000000	0.000000	0.000000	2
75.975994	15.642117	0.000000	-0.342036	0.359681	0.000000	0.496346	-11.308813	0.000000	0.000000	0.000000	0.000000	0.000000	1
79.084987	15.642117	0.000000	-0.215335	0.390308	0.000000	0.445768	-8.106314	0.000000	0.000000	0.000000	0.000000	0.000000	2
82.193979	15.642117	0.000000	-0.108946	0.373085	0.000000	0.388666	-21.317062	0.000000	0.000000	0.000000	0.000000	0.000000	2
85.302971	15.642117	0.000000	-0.036573	0.144438	0.000000	0.148996	-48.030183	0.000000	0.000000	0.000000	0.000000	0.000000	1
88.411963	15.642117	0.000000	0.000470	0.057919	0.000000	0.057921	-54.512750	0.000000	0.000000	0.000000	0.000000	0.000000	2
91.520955	15.642117	0.000000	0.009703	0.033866	0.000000	0.035228	-24.258318	0.000000	0.000000	0.000000	0.000000	0.000000	2
94.629947	15.642117	0.000000	0.018562	0.022530	0.000000	0.029191	2.630324	0.000000	0.000000	0.000000	0.000000	0.000000	1
97.738939	15.642117	0.000000	0.024826	0.027500	0.000000	0.037049	-0.069151	0.000000	0.000000	0.000000	0.000000	0.000000	2
100.847931	15.642117	0.000000	0.015571	0.029180	0.000000	0.033075	-4.500673	0.000000	0.000000	0.000000	0.000000	0.000000	1
103.956923	15.642117	0.000000	0.003430	0.008959	0.000000	0.009593	-2.157220	0.000000	0.000000	0.000000	0.000000	0.000000	1
107.065915	15.642117	0.000000	-0.012246	0.023913	0.000000	0.026866	0.293292	0.000000	0.000000	0.000000	0.000000	0.000000	1
110.174908	15.642117	0.000000	-0.013550	0.024426	0.000000	0.027933	-3.299592	0.000000	0.000000	0.000000	0.000000	0.000000	1
113.283900	15.642117	0.000000	0.000273	0.002774	0.000000	0.002787	-2.961001	0.000000	0.000000	0.000000	0.000000	0.000000	1
116.392892	15.642117	0.000000	0.000873	0.001528	0.000000	0.001760	0.630196	0.000000	0.000000	0.000000	0.000000	0.000000	1
119.501884	15.642117	0.000000	-0.001706	0.003949	0.000000	0.004302	2.462798	0.000000	0.000000	0.000000	0.000000	0.000000	1
122.610876	15.642117	0.000000	-0.008015	0.014380	0.000000	0.016463	2.066240	0.000000	0.000000	0.000000	0.000000	0.000000	1