TITLE = "PIV Result  1631 "
VARIABLES = "X (mm)""Y (mm)""Z (mm)""U (m/s)""V (m/s)""W (m/s)""Speed (m/s)""Vorticity""U-std""V-std""W-std""Speed-std""Vorticity-std""Flag"
ZONE T="ZONE 1631 "
I= 51 , J= 16 , K= 1 , F=POINT
DT=(DOUBLE DOUBLE DOUBLE DOUBLE DOUBLE DOUBLE DOUBLE DOUBLE DOUBLE DOUBLE DOUBLE DOUBLE DOUBLE DOUBLE)
4.469176	3.206148	0.000000	0.004683	0.006317	0.000000	0.007863	-0.398949	0.000000	0.000000	0.000000	0.000000	0.000000	1
7.578168	3.206148	0.000000	0.001073	0.005410	0.000000	0.005515	-1.009335	0.000000	0.000000	0.000000	0.000000	0.000000	1
10.687160	3.206148	0.000000	0.001495	0.003767	0.000000	0.004053	-1.294247	0.000000	0.000000	0.000000	0.000000	0.000000	1
13.796152	3.206148	0.000000	0.000617	0.002855	0.000000	0.002921	-0.500215	0.000000	0.000000	0.000000	0.000000	0.000000	1
16.905145	3.206148	0.000000	0.003415	0.006215	0.000000	0.007091	-0.972832	0.000000	0.000000	0.000000	0.000000	0.000000	1
20.014137	3.206148	0.000000	0.003116	0.006134	0.000000	0.006880	-1.486614	0.000000	0.000000	0.000000	0.000000	0.000000	1
23.123129	3.206148	0.000000	0.001838	0.006144	0.000000	0.006414	-0.639818	0.000000	0.000000	0.000000	0.000000	0.000000	1
26.232121	3.206148	0.000000	0.003179	0.007917	0.000000	0.008532	0.594421	0.000000	0.000000	0.000000	0.000000	0.000000	1
29.341113	3.206148	0.000000	0.006374	0.008510	0.000000	0.010632	2.485286	0.000000	0.000000	0.000000	0.000000	0.000000	1
32.450105	3.206148	0.000000	0.007418	0.009699	0.000000	0.012211	1.316206	0.000000	0.000000	0.000000	0.000000	0.000000	1
35.559097	3.206148	0.000000	0.009655	0.001386	0.000000	0.009754	-0.987017	0.000000	0.000000	0.000000	0.000000	0.000000	1
38.668089	3.206148	0.000000	0.006250	0.000790	0.000000	0.006300	-1.447999	0.000000	0.000000	0.000000	0.000000	0.000000	1
41.777081	3.206148	0.000000	0.000836	-0.000129	0.000000	0.000845	-1.154494	0.000000	0.000000	0.000000	0.000000	0.000000	1
44.886073	3.206148	0.000000	0.002497	-0.000053	0.000000	0.002497	-0.613395	0.000000	0.000000	0.000000	0.000000	0.000000	1
47.995066	3.206148	0.000000	0.003307	0.000105	0.000000	0.003308	-1.305570	0.000000	0.000000	0.000000	0.000000	0.000000	1
51.104058	3.206148	0.000000	0.002261	-0.000331	0.000000	0.002285	-2.334613	0.000000	0.000000	0.000000	0.000000	0.000000	1
54.213050	3.206148	0.000000	0.002113	0.000060	0.000000	0.002114	-3.487246	0.000000	0.000000	0.000000	0.000000	0.000000	1
57.322042	3.206148	0.000000	0.004366	0.000388	0.000000	0.004383	-5.413792	0.000000	0.000000	0.000000	0.000000	0.000000	1
60.431034	3.206148	0.000000	0.004877	-0.000208	0.000000	0.004882	-5.855303	0.000000	0.000000	0.000000	0.000000	0.000000	1
63.540026	3.206148	0.000000	0.000824	-0.001159	0.000000	0.001422	-2.121710	0.000000	0.000000	0.000000	0.000000	0.000000	1
66.649018	3.206148	0.000000	0.000440	-0.000572	0.000000	0.000721	0.925267	0.000000	0.000000	0.000000	0.000000	0.000000	1
69.758010	3.206148	0.000000	0.002538	-0.000539	0.000000	0.002595	0.369260	0.000000	0.000000	0.000000	0.000000	0.000000	1
72.867002	3.206148	0.000000	0.005228	-0.004085	0.000000	0.006635	7.333485	0.000000	0.000000	0.000000	0.000000	0.000000	1
75.975994	3.206148	0.000000	-0.010529	0.039346	0.000000	0.040731	132.914357	0.000000	0.000000	0.000000	0.000000	0.000000	1
79.084987	3.206148	0.000000	0.144518	0.777252	0.000000	0.790574	137.649721	0.000000	0.000000	0.000000	0.000000	0.000000	2
82.193979	3.206148	0.000000	0.126092	0.799776	0.000000	0.809655	-27.584793	0.000000	0.000000	0.000000	0.000000	0.000000	2
85.302971	3.206148	0.000000	0.116879	0.452357	0.000000	0.467213	-82.128348	0.000000	0.000000	0.000000	0.000000	0.000000	2
88.411963	3.206148	0.000000	0.215985	0.284165	0.000000	0.356930	-68.777592	0.000000	0.000000	0.000000	0.000000	0.000000	1
91.520955	3.206148	0.000000	0.165712	0.195894	0.000000	0.256583	-40.865859	0.000000	0.000000	0.000000	0.000000	0.000000	2
94.629947	3.206148	0.000000	0.252932	0.177537	0.000000	0.309021	-15.729649	0.000000	0.000000	0.000000	0.000000	0.000000	2
97.738939	3.206148	0.000000	0.253172	0.168359	0.000000	0.304041	-24.314997	0.000000	0.000000	0.000000	0.000000	0.000000	2
100.847931	3.206148	0.000000	0.253297	0.095342	0.000000	0.270646	-45.496108	0.000000	0.000000	0.000000	0.000000	0.000000	2
103.956923	3.206148	0.000000	0.217850	-0.001571	0.000000	0.217856	-30.212533	0.000000	0.000000	0.000000	0.000000	0.000000	2
107.065915	3.206148	0.000000	0.162038	-0.002188	0.000000	0.162053	-8.412048	0.000000	0.000000	0.000000	0.000000	0.000000	2
110.174908	3.206148	0.000000	0.136810	-0.000097	0.000000	0.136810	-5.723445	0.000000	0.000000	0.000000	0.000000	0.000000	2
113.283900	3.206148	0.000000	0.105343	-0.000705	0.000000	0.105345	-11.827436	0.000000	0.000000	0.000000	0.000000	0.000000	2
116.392892	3.206148	0.000000	0.039284	-0.001109	0.000000	0.039299	-9.976829	0.000000	0.000000	0.000000	0.000000	0.000000	2
119.501884	3.206148	0.000000	-0.001578	-0.000683	0.000000	0.001720	-2.237147	0.000000	0.000000	0.000000	0.000000	0.000000	1
122.610876	3.206148	0.000000	0.000192	0.000340	0.000000	0.000391	1.629371	0.000000	0.000000	0.000000	0.000000	0.000000	1
125.719868	3.206148	0.000000	-0.001495	0.000893	0.000000	0.001741	0.428727	0.000000	0.000000	0.000000	0.000000	0.000000	1
128.828860	3.206148	0.000000	-0.001862	0.000438	0.000000	0.001912	-0.342241	0.000000	0.000000	0.000000	0.000000	0.000000	1
131.937852	3.206148	0.000000	-0.001694	0.000735	0.000000	0.001847	0.576892	0.000000	0.000000	0.000000	0.000000	0.000000	1
135.046844	3.206148	0.000000	-0.002530	0.008875	0.000000	0.009229	-0.054767	0.000000	0.000000	0.000000	0.000000	0.000000	1
138.155836	3.206148	0.000000	-0.007587	0.008747	0.000000	0.011579	-2.157133	0.000000	0.000000	0.000000	0.000000	0.000000	1
141.264829	3.206148	0.000000	-0.007200	0.007477	0.000000	0.010380	-2.052079	0.000000	0.000000	0.000000	0.000000	0.000000	1
144.373821	3.206148	0.000000	-0.004210	0.005528	0.000000	0.006949	-0.323200	0.000000	0.000000	0.000000	0.000000	0.000000	1
147.482813	3.206148	0.000000	-0.003932	0.006905	0.000000	0.007946	0.258617	0.000000	0.000000	0.000000	0.000000	0.000000	1
150.591805	3.206148	0.000000	-0.003622	0.006492	0.000000	0.007434	-0.995958	0.000000	0.000000	0.000000	0.000000	0.000000	1
153.700797	3.206148	0.000000	-0.002385	0.000956	0.000000	0.002569	-0.114383	0.000000	0.000000	0.000000	0.000000	0.000000	1
156.809789	3.206148	0.000000	-0.003319	0.002288	0.000000	0.004031	3.087226	0.000000	0.000000	0.000000	0.000000	0.000000	1
159.918781	3.206148	0.000000	-0.002897	0.003162	0.000000	0.004288	4.436175	0.000000	0.000000	0.000000	0.000000	0.000000	1
4.469176	6.315140	0.000000	0.005578	0.009273	0.000000	0.010822	0.401552	0.000000	0.000000	0.000000	0.000000	0.000000	1
7.578168	6.315140	0.000000	0.001813	0.009334	0.000000	0.009509	-0.371846	0.000000	0.000000	0.000000	0.000000	0.000000	1
10.687160	6.315140	0.000000	0.003465	0.003615	0.000000	0.005008	-0.914454	0.000000	0.000000	0.000000	0.000000	0.000000	1
13.796152	6.315140	0.000000	0.003150	0.003006	0.000000	0.004354	-0.115908	0.000000	0.000000	0.000000	0.000000	0.000000	1
16.905145	6.315140	0.000000	0.009297	0.007865	0.000000	0.012178	-0.534482	0.000000	0.000000	0.000000	0.000000	0.000000	1
20.014137	6.315140	0.000000	0.006053	0.004864	0.000000	0.007765	-1.201302	0.000000	0.000000	0.000000	0.000000	0.000000	1
23.123129	6.315140	0.000000	0.005813	0.005179	0.000000	0.007785	-0.391384	0.000000	0.000000	0.000000	0.000000	0.000000	1
26.232121	6.315140	0.000000	0.004584	0.007415	0.000000	0.008718	0.577681	0.000000	0.000000	0.000000	0.000000	0.000000	1
29.341113	6.315140	0.000000	-0.000323	0.010293	0.000000	0.010299	1.831202	0.000000	0.000000	0.000000	0.000000	0.000000	1
32.450105	6.315140	0.000000	-0.000855	0.016278	0.000000	0.016300	1.166494	0.000000	0.000000	0.000000	0.000000	0.000000	1
35.559097	6.315140	0.000000	0.010703	0.011589	0.000000	0.015775	-0.430005	0.000000	0.000000	0.000000	0.000000	0.000000	1
38.668089	6.315140	0.000000	0.008060	0.008543	0.000000	0.011745	-1.250021	0.000000	0.000000	0.000000	0.000000	0.000000	1
41.777081	6.315140	0.000000	0.002225	0.001153	0.000000	0.002505	-0.961667	0.000000	0.000000	0.000000	0.000000	0.000000	1
44.886073	6.315140	0.000000	0.004139	0.001259	0.000000	0.004326	-0.095707	0.000000	0.000000	0.000000	0.000000	0.000000	1
47.995066	6.315140	0.000000	0.008181	0.002838	0.000000	0.008659	-0.369600	0.000000	0.000000	0.000000	0.000000	0.000000	1
51.104058	6.315140	0.000000	0.008368	0.002799	0.000000	0.008824	-0.612245	0.000000	0.000000	0.000000	0.000000	0.000000	1
54.213050	6.315140	0.000000	0.010517	-0.000658	0.000000	0.010537	-0.287906	0.000000	0.000000	0.000000	0.000000	0.000000	1
57.322042	6.315140	0.000000	0.022183	-0.000555	0.000000	0.022190	-0.195227	0.000000	0.000000	0.000000	0.000000	0.000000	1
60.431034	6.315140	0.000000	0.026421	-0.002134	0.000000	0.026507	-0.177061	0.000000	0.000000	0.000000	0.000000	0.000000	1
63.540026	6.315140	0.000000	0.002903	-0.008841	0.000000	0.009305	0.688617	0.000000	0.000000	0.000000	0.000000	0.000000	1
66.649018	6.315140	0.000000	-0.005662	-0.008555	0.000000	0.010259	0.918316	0.000000	0.000000	0.000000	0.000000	0.000000	1
69.758010	6.315140	0.000000	-0.000135	-0.010751	0.000000	0.010752	1.361152	0.000000	0.000000	0.000000	0.000000	0.000000	1
72.867002	6.315140	0.000000	0.002928	-0.014198	0.000000	0.014496	8.041561	0.000000	0.000000	0.000000	0.000000	0.000000	1
75.975994	6.315140	0.000000	-0.007019	0.036799	0.000000	0.037462	132.629835	0.000000	0.000000	0.000000	0.000000	0.000000	2
79.084987	6.315140	0.000000	0.030040	0.747629	0.000000	0.748233	139.778292	0.000000	0.000000	0.000000	0.000000	0.000000	2
82.193979	6.315140	0.000000	0.107666	0.744310	0.000000	0.752056	-4.235705	0.000000	0.000000	0.000000	0.000000	0.000000	1
85.302971	6.315140	0.000000	0.152457	0.613729	0.000000	0.632381	-54.062087	0.000000	0.000000	0.000000	0.000000	0.000000	2
88.411963	6.315140	0.000000	0.263650	0.338969	0.000000	0.429431	-65.144187	0.000000	0.000000	0.000000	0.000000	0.000000	1
91.520955	6.315140	0.000000	0.252535	0.232607	0.000000	0.343337	-41.613818	0.000000	0.000000	0.000000	0.000000	0.000000	1
94.629947	6.315140	0.000000	0.253413	0.159180	0.000000	0.299260	-14.745098	0.000000	0.000000	0.000000	0.000000	0.000000	1
97.738939	6.315140	0.000000	0.314984	0.214123	0.000000	0.380872	-21.116665	0.000000	0.000000	0.000000	0.000000	0.000000	1
100.847931	6.315140	0.000000	0.331232	0.141032	0.000000	0.360006	-38.863800	0.000000	0.000000	0.000000	0.000000	0.000000	2
103.956923	6.315140	0.000000	0.253422	0.071515	0.000000	0.263319	-46.667885	0.000000	0.000000	0.000000	0.000000	0.000000	2
107.065915	6.315140	0.000000	0.182403	0.032281	0.000000	0.185237	-55.225107	0.000000	0.000000	0.000000	0.000000	0.000000	1
110.174908	6.315140	0.000000	0.141673	0.046593	0.000000	0.149138	-57.019565	0.000000	0.000000	0.000000	0.000000	0.000000	1
113.283900	6.315140	0.000000	0.131948	0.016317	0.000000	0.132953	-49.319669	0.000000	0.000000	0.000000	0.000000	0.000000	1
116.392892	6.315140	0.000000	0.078738	-0.001954	0.000000	0.078762	-27.188183	0.000000	0.000000	0.000000	0.000000	0.000000	2
119.501884	6.315140	0.000000	-0.005273	-0.005958	0.000000	0.007956	-5.585620	0.000000	0.000000	0.000000	0.000000	0.000000	1
122.610876	6.315140	0.000000	-0.004684	-0.004035	0.000000	0.006182	1.233690	0.000000	0.000000	0.000000	0.000000	0.000000	1
125.719868	6.315140	0.000000	-0.001008	-0.000230	0.000000	0.001034	1.438373	0.000000	0.000000	0.000000	0.000000	0.000000	1
128.828860	6.315140	0.000000	-0.000253	-0.001094	0.000000	0.001123	1.355304	0.000000	0.000000	0.000000	0.000000	0.000000	1
131.937852	6.315140	0.000000	0.002008	0.003078	0.000000	0.003675	1.725708	0.000000	0.000000	0.000000	0.000000	0.000000	1
135.046844	6.315140	0.000000	-0.000276	0.008911	0.000000	0.008915	0.716912	0.000000	0.000000	0.000000	0.000000	0.000000	1
138.155836	6.315140	0.000000	-0.000567	0.009617	0.000000	0.009634	-1.243009	0.000000	0.000000	0.000000	0.000000	0.000000	1
141.264829	6.315140	0.000000	-0.003054	0.003923	0.000000	0.004972	-0.971574	0.000000	0.000000	0.000000	0.000000	0.000000	1
144.373821	6.315140	0.000000	-0.003348	0.003490	0.000000	0.004836	0.276655	0.000000	0.000000	0.000000	0.000000	0.000000	1
147.482813	6.315140	0.000000	-0.003780	0.006499	0.000000	0.007518	0.153919	0.000000	0.000000	0.000000	0.000000	0.000000	1
150.591805	6.315140	0.000000	-0.003772	0.006759	0.000000	0.007741	-1.124389	0.000000	0.000000	0.000000	0.000000	0.000000	1
153.700797	6.315140	0.000000	-0.002603	-0.000305	0.000000	0.002621	-0.470554	0.000000	0.000000	0.000000	0.000000	0.000000	1
156.809789	6.315140	0.000000	-0.009404	0.002868	0.000000	0.009832	1.466020	0.000000	0.000000	0.000000	0.000000	0.000000	1
159.918781	6.315140	0.000000	-0.018818	0.007572	0.000000	0.020284	1.897226	0.000000	0.000000	0.000000	0.000000	0.000000	1
4.469176	9.424132	0.000000	-0.001725	0.007081	0.000000	0.007288	0.127930	0.000000	0.000000	0.000000	0.000000	0.000000	1
7.578168	9.424132	0.000000	-0.000424	0.004955	0.000000	0.004973	-0.036710	0.000000	0.000000	0.000000	0.000000	0.000000	1
10.687160	9.424132	0.000000	0.003742	0.004543	0.000000	0.005886	0.140229	0.000000	0.000000	0.000000	0.000000	0.000000	1
13.796152	9.424132	0.000000	0.005153	0.004955	0.000000	0.007149	1.080962	0.000000	0.000000	0.000000	0.000000	0.000000	1
16.905145	9.424132	0.000000	0.009455	0.008073	0.000000	0.012433	0.747857	0.000000	0.000000	0.000000	0.000000	0.000000	1
20.014137	9.424132	0.000000	0.008779	0.006947	0.000000	0.011195	0.176920	0.000000	0.000000	0.000000	0.000000	0.000000	1
23.123129	9.424132	0.000000	0.007257	0.006422	0.000000	0.009690	0.929194	0.000000	0.000000	0.000000	0.000000	0.000000	1
26.232121	9.424132	0.000000	0.005475	0.009123	0.000000	0.010639	0.855620	0.000000	0.000000	0.000000	0.000000	0.000000	1
29.341113	9.424132	0.000000	-0.000004	0.011828	0.000000	0.011828	0.773567	0.000000	0.000000	0.000000	0.000000	0.000000	1
32.450105	9.424132	0.000000	-0.001780	0.015502	0.000000	0.015604	0.747023	0.000000	0.000000	0.000000	0.000000	0.000000	1
35.559097	9.424132	0.000000	0.002798	0.013741	0.000000	0.014023	0.094456	0.000000	0.000000	0.000000	0.000000	0.000000	1
38.668089	9.424132	0.000000	0.007442	0.007463	0.000000	0.010539	-0.468963	0.000000	0.000000	0.000000	0.000000	0.000000	1
41.777081	9.424132	0.000000	0.001776	0.001503	0.000000	0.002327	-0.525618	0.000000	0.000000	0.000000	0.000000	0.000000	1
44.886073	9.424132	0.000000	0.004721	0.004252	0.000000	0.006353	-0.976087	0.000000	0.000000	0.000000	0.000000	0.000000	1
47.995066	9.424132	0.000000	0.006064	0.003665	0.000000	0.007086	-0.788570	0.000000	0.000000	0.000000	0.000000	0.000000	1
51.104058	9.424132	0.000000	0.006359	0.004095	0.000000	0.007564	-0.096861	0.000000	0.000000	0.000000	0.000000	0.000000	1
54.213050	9.424132	0.000000	0.006541	0.010855	0.000000	0.012673	0.374243	0.000000	0.000000	0.000000	0.000000	0.000000	1
57.322042	9.424132	0.000000	0.002819	0.014330	0.000000	0.014605	0.262862	0.000000	0.000000	0.000000	0.000000	0.000000	1
60.431034	9.424132	0.000000	-0.005625	0.000051	0.000000	0.005625	2.070931	0.000000	0.000000	0.000000	0.000000	0.000000	1
63.540026	9.424132	0.000000	-0.005089	-0.000420	0.000000	0.005107	5.087245	0.000000	0.000000	0.000000	0.000000	0.000000	1
66.649018	9.424132	0.000000	-0.005259	0.002356	0.000000	0.005763	3.012048	0.000000	0.000000	0.000000	0.000000	0.000000	1
69.758010	9.424132	0.000000	-0.014486	-0.008713	0.000000	0.016904	1.540187	0.000000	0.000000	0.000000	0.000000	0.000000	1
72.867002	9.424132	0.000000	-0.013456	-0.007421	0.000000	0.015366	5.067053	0.000000	0.000000	0.000000	0.000000	0.000000	1
75.975994	9.424132	0.000000	-0.017509	-0.005062	0.000000	0.018226	105.065470	0.000000	0.000000	0.000000	0.000000	0.000000	2
79.084987	9.424132	0.000000	-0.053369	0.755826	0.000000	0.757707	124.283304	0.000000	0.000000	0.000000	0.000000	0.000000	2
82.193979	9.424132	0.000000	0.017969	0.785177	0.000000	0.785383	29.009512	0.000000	0.000000	0.000000	0.000000	0.000000	2
85.302971	9.424132	0.000000	0.118167	0.830328	0.000000	0.838694	-13.272038	0.000000	0.000000	0.000000	0.000000	0.000000	2
88.411963	9.424132	0.000000	0.214400	0.659706	0.000000	0.693671	-58.585742	0.000000	0.000000	0.000000	0.000000	0.000000	1
91.520955	9.424132	0.000000	0.241579	0.302754	0.000000	0.387325	-50.584436	0.000000	0.000000	0.000000	0.000000	0.000000	1
94.629947	9.424132	0.000000	0.279670	0.267778	0.000000	0.387196	-19.089766	0.000000	0.000000	0.000000	0.000000	0.000000	1
97.738939	9.424132	0.000000	0.376107	0.252795	0.000000	0.453168	-16.808964	0.000000	0.000000	0.000000	0.000000	0.000000	1
100.847931	9.424132	0.000000	0.326409	0.206776	0.000000	0.386392	-18.739071	0.000000	0.000000	0.000000	0.000000	0.000000	2
103.956923	9.424132	0.000000	0.366767	0.159395	0.000000	0.399906	-40.170303	0.000000	0.000000	0.000000	0.000000	0.000000	1
107.065915	9.424132	0.000000	0.527975	0.097966	0.000000	0.536987	-63.125791	0.000000	0.000000	0.000000	0.000000	0.000000	1
110.174908	9.424132	0.000000	0.473634	0.051821	0.000000	0.476460	-60.891720	0.000000	0.000000	0.000000	0.000000	0.000000	2
113.283900	9.424132	0.000000	0.407172	0.051635	0.000000	0.410433	-57.086360	0.000000	0.000000	0.000000	0.000000	0.000000	1
116.392892	9.424132	0.000000	0.177031	0.001478	0.000000	0.177038	-40.312632	0.000000	0.000000	0.000000	0.000000	0.000000	2
119.501884	9.424132	0.000000	-0.002889	-0.004047	0.000000	0.004972	-11.939177	0.000000	0.000000	0.000000	0.000000	0.000000	1
122.610876	9.424132	0.000000	-0.003005	-0.002803	0.000000	0.004109	0.326605	0.000000	0.000000	0.000000	0.000000	0.000000	1
125.719868	9.424132	0.000000	-0.005126	0.002271	0.000000	0.005607	2.132781	0.000000	0.000000	0.000000	0.000000	0.000000	1
128.828860	9.424132	0.000000	-0.010170	0.008224	0.000000	0.013080	2.132514	0.000000	0.000000	0.000000	0.000000	0.000000	1
131.937852	9.424132	0.000000	-0.005370	0.005597	0.000000	0.007756	2.066332	0.000000	0.000000	0.000000	0.000000	0.000000	1
135.046844	9.424132	0.000000	-0.000511	0.009060	0.000000	0.009074	1.736265	0.000000	0.000000	0.000000	0.000000	0.000000	1
138.155836	9.424132	0.000000	-0.000629	0.009662	0.000000	0.009683	0.224310	0.000000	0.000000	0.000000	0.000000	0.000000	1
141.264829	9.424132	0.000000	-0.006726	0.005927	0.000000	0.008965	0.419874	0.000000	0.000000	0.000000	0.000000	0.000000	1
144.373821	9.424132	0.000000	-0.005849	0.007236	0.000000	0.009304	0.727767	0.000000	0.000000	0.000000	0.000000	0.000000	1
147.482813	9.424132	0.000000	-0.003658	0.005698	0.000000	0.006771	-0.282286	0.000000	0.000000	0.000000	0.000000	0.000000	1
150.591805	9.424132	0.000000	-0.002200	0.003894	0.000000	0.004472	-0.676547	0.000000	0.000000	0.000000	0.000000	0.000000	1
153.700797	9.424132	0.000000	-0.001256	0.001537	0.000000	0.001985	-0.431744	0.000000	0.000000	0.000000	0.000000	0.000000	1
156.809789	9.424132	0.000000	-0.007445	0.003730	0.000000	0.008328	-0.645516	0.000000	0.000000	0.000000	0.000000	0.000000	1
159.918781	9.424132	0.000000	-0.010233	0.005580	0.000000	0.011656	-1.186786	0.000000	0.000000	0.000000	0.000000	0.000000	1
4.469176	12.533124	0.000000	0.001251	0.002928	0.000000	0.003184	-1.059732	0.000000	0.000000	0.000000	0.000000	0.000000	1
7.578168	12.533124	0.000000	0.000457	0.003028	0.000000	0.003063	-0.779018	0.000000	0.000000	0.000000	0.000000	0.000000	1
10.687160	12.533124	0.000000	0.000335	0.002580	0.000000	0.002602	0.069938	0.000000	0.000000	0.000000	0.000000	0.000000	1
13.796152	12.533124	0.000000	0.000414	0.002492	0.000000	0.002526	0.981973	0.000000	0.000000	0.000000	0.000000	0.000000	1
16.905145	12.533124	0.000000	0.004918	0.005176	0.000000	0.007140	1.111992	0.000000	0.000000	0.000000	0.000000	0.000000	1
20.014137	12.533124	0.000000	0.007061	0.004766	0.000000	0.008520	1.747659	0.000000	0.000000	0.000000	0.000000	0.000000	1
23.123129	12.533124	0.000000	0.001202	0.008592	0.000000	0.008676	2.278566	0.000000	0.000000	0.000000	0.000000	0.000000	1
26.232121	12.533124	0.000000	0.001925	0.010102	0.000000	0.010284	0.784161	0.000000	0.000000	0.000000	0.000000	0.000000	1
29.341113	12.533124	0.000000	0.000900	0.005241	0.000000	0.005317	-0.132390	0.000000	0.000000	0.000000	0.000000	0.000000	1
32.450105	12.533124	0.000000	-0.001092	0.007270	0.000000	0.007351	0.261656	0.000000	0.000000	0.000000	0.000000	0.000000	1
35.559097	12.533124	0.000000	-0.000199	0.008544	0.000000	0.008547	0.058286	0.000000	0.000000	0.000000	0.000000	0.000000	1
38.668089	12.533124	0.000000	0.002688	0.006018	0.000000	0.006591	-0.051147	0.000000	0.000000	0.000000	0.000000	0.000000	1
41.777081	12.533124	0.000000	0.003722	0.011644	0.000000	0.012224	0.070726	0.000000	0.000000	0.000000	0.000000	0.000000	1
44.886073	12.533124	0.000000	0.016121	0.016258	0.000000	0.022896	-0.916437	0.000000	0.000000	0.000000	0.000000	0.000000	1
47.995066	12.533124	0.000000	0.017128	0.015769	0.000000	0.023282	2.918637	0.000000	0.000000	0.000000	0.000000	0.000000	1
51.104058	12.533124	0.000000	0.017013	0.033941	0.000000	0.037966	8.183500	0.000000	0.000000	0.000000	0.000000	0.000000	1
54.213050	12.533124	0.000000	0.013925	0.032122	0.000000	0.035010	5.781895	0.000000	0.000000	0.000000	0.000000	0.000000	1
57.322042	12.533124	0.000000	-0.001553	0.017859	0.000000	0.017926	-0.037316	0.000000	0.000000	0.000000	0.000000	0.000000	1
60.431034	12.533124	0.000000	-0.004227	-0.012968	0.000000	0.013639	1.954568	0.000000	0.000000	0.000000	0.000000	0.000000	1
63.540026	12.533124	0.000000	-0.011892	0.007326	0.000000	0.013967	7.324348	0.000000	0.000000	0.000000	0.000000	0.000000	1
66.649018	12.533124	0.000000	-0.026923	0.033872	0.000000	0.043269	3.284649	0.000000	0.000000	0.000000	0.000000	0.000000	1
69.758010	12.533124	0.000000	-0.023580	0.019977	0.000000	0.030904	-0.643699	0.000000	0.000000	0.000000	0.000000	0.000000	1
72.867002	12.533124	0.000000	-0.019760	0.006538	0.000000	0.020814	-0.325856	0.000000	0.000000	0.000000	0.000000	0.000000	1
75.975994	12.533124	0.000000	-0.019311	0.010039	0.000000	0.021764	46.956174	0.000000	0.000000	0.000000	0.000000	0.000000	1
79.084987	12.533124	0.000000	-0.016132	0.237963	0.000000	0.238509	77.190152	0.000000	0.000000	0.000000	0.000000	0.000000	2
82.193979	12.533124	0.000000	0.004221	0.605143	0.000000	0.605158	35.262358	0.000000	0.000000	0.000000	0.000000	0.000000	2
85.302971	12.533124	0.000000	0.077236	0.616101	0.000000	0.620923	6.548168	0.000000	0.000000	0.000000	0.000000	0.000000	1
88.411963	12.533124	0.000000	0.191382	0.605168	0.000000	0.634709	-12.725016	0.000000	0.000000	0.000000	0.000000	0.000000	2
91.520955	12.533124	0.000000	0.368558	0.491490	0.000000	0.614327	-10.204583	0.000000	0.000000	0.000000	0.000000	0.000000	2
94.629947	12.533124	0.000000	0.347077	0.564117	0.000000	0.662337	-6.483900	0.000000	0.000000	0.000000	0.000000	0.000000	2
97.738939	12.533124	0.000000	0.296565	0.420025	0.000000	0.514171	-21.931601	0.000000	0.000000	0.000000	0.000000	0.000000	1
100.847931	12.533124	0.000000	0.282374	0.294168	0.000000	0.407762	-20.750085	0.000000	0.000000	0.000000	0.000000	0.000000	1
103.956923	12.533124	0.000000	0.333011	0.246810	0.000000	0.414502	-27.572169	0.000000	0.000000	0.000000	0.000000	0.000000	1
107.065915	12.533124	0.000000	0.535632	0.084972	0.000000	0.542330	-22.821659	0.000000	0.000000	0.000000	0.000000	0.000000	2
110.174908	12.533124	0.000000	0.496046	0.057235	0.000000	0.499337	0.149269	0.000000	0.000000	0.000000	0.000000	0.000000	1
113.283900	12.533124	0.000000	0.456632	0.065759	0.000000	0.461343	-5.673480	0.000000	0.000000	0.000000	0.000000	0.000000	1
116.392892	12.533124	0.000000	0.320408	0.032029	0.000000	0.322005	-28.624387	0.000000	0.000000	0.000000	0.000000	0.000000	2
119.501884	12.533124	0.000000	0.000394	0.010436	0.000000	0.010443	-23.941415	0.000000	0.000000	0.000000	0.000000	0.000000	1
122.610876	12.533124	0.000000	-0.002047	0.001364	0.000000	0.002459	-5.205458	0.000000	0.000000	0.000000	0.000000	0.000000	1
125.719868	12.533124	0.000000	-0.008377	0.003766	0.000000	0.009185	0.286458	0.000000	0.000000	0.000000	0.000000	0.000000	1
128.828860	12.533124	0.000000	-0.009972	0.007593	0.000000	0.012534	-0.026700	0.000000	0.000000	0.000000	0.000000	0.000000	1
131.937852	12.533124	0.000000	-0.009484	0.008546	0.000000	0.012766	0.401163	0.000000	0.000000	0.000000	0.000000	0.000000	1
135.046844	12.533124	0.000000	-0.007742	0.007141	0.000000	0.010533	0.928526	0.000000	0.000000	0.000000	0.000000	0.000000	1
138.155836	12.533124	0.000000	-0.005589	0.005615	0.000000	0.007922	0.420864	0.000000	0.000000	0.000000	0.000000	0.000000	1
141.264829	12.533124	0.000000	-0.004899	0.004619	0.000000	0.006733	0.329264	0.000000	0.000000	0.000000	0.000000	0.000000	1
144.373821	12.533124	0.000000	-0.009127	0.012547	0.000000	0.015516	-0.045547	0.000000	0.000000	0.000000	0.000000	0.000000	1
147.482813	12.533124	0.000000	-0.003942	0.007036	0.000000	0.008065	-0.286970	0.000000	0.000000	0.000000	0.000000	0.000000	1
150.591805	12.533124	0.000000	-0.002206	0.004405	0.000000	0.004926	0.571868	0.000000	0.000000	0.000000	0.000000	0.000000	1
153.700797	12.533124	0.000000	-0.004142	0.006768	0.000000	0.007935	0.068986	0.000000	0.000000	0.000000	0.000000	0.000000	1
156.809789	12.533124	0.000000	-0.002869	0.002908	0.000000	0.004085	-1.170788	0.000000	0.000000	0.000000	0.000000	0.000000	1
159.918781	12.533124	0.000000	-0.003054	0.002046	0.000000	0.003676	-1.521931	0.000000	0.000000	0.000000	0.000000	0.000000	1
4.469176	15.642117	0.000000	0.004816	0.005564	0.000000	0.007359	-0.491878	0.000000	0.000000	0.000000	0.000000	0.000000	1
7.578168	15.642117	0.000000	0.004619	0.005895	0.000000	0.007489	-0.766899	0.000000	0.000000	0.000000	0.000000	0.000000	1
10.687160	15.642117	0.000000	0.000345	0.002652	0.000000	0.002674	-0.448929	0.000000	0.000000	0.000000	0.000000	0.000000	1
13.796152	15.642117	0.000000	0.003876	0.005678	0.000000	0.006874	0.242441	0.000000	0.000000	0.000000	0.000000	0.000000	1
16.905145	15.642117	0.000000	0.007361	0.010308	0.000000	0.012667	-0.260534	0.000000	0.000000	0.000000	0.000000	0.000000	1
20.014137	15.642117	0.000000	-0.003620	0.008931	0.000000	0.009637	0.210907	0.000000	0.000000	0.000000	0.000000	0.000000	1
23.123129	15.642117	0.000000	-0.003676	0.010769	0.000000	0.011379	0.809413	0.000000	0.000000	0.000000	0.000000	0.000000	1
26.232121	15.642117	0.000000	-0.002734	0.010281	0.000000	0.010639	-0.550921	0.000000	0.000000	0.000000	0.000000	0.000000	1
29.341113	15.642117	0.000000	0.001625	0.005849	0.000000	0.006071	-0.378872	0.000000	0.000000	0.000000	0.000000	0.000000	1
32.450105	15.642117	0.000000	0.000569	0.003675	0.000000	0.003719	1.964176	0.000000	0.000000	0.000000	0.000000	0.000000	1
35.559097	15.642117	0.000000	0.004582	0.011949	0.000000	0.012797	2.275063	0.000000	0.000000	0.000000	0.000000	0.000000	1
38.668089	15.642117	0.000000	0.004824	0.018967	0.000000	0.019570	0.391858	0.000000	0.000000	0.000000	0.000000	0.000000	1
41.777081	15.642117	0.000000	0.006248	0.017737	0.000000	0.018805	0.338730	0.000000	0.000000	0.000000	0.000000	0.000000	1
44.886073	15.642117	0.000000	0.015440	0.020503	0.000000	0.025666	3.627660	0.000000	0.000000	0.000000	0.000000	0.000000	1
47.995066	15.642117	0.000000	0.021137	0.025513	0.000000	0.033132	11.989690	0.000000	0.000000	0.000000	0.000000	0.000000	1
51.104058	15.642117	0.000000	-0.044416	0.047974	0.000000	0.065379	15.055490	0.000000	0.000000	0.000000	0.000000	0.000000	1
54.213050	15.642117	0.000000	-0.050349	0.045791	0.000000	0.068057	6.878221	0.000000	0.000000	0.000000	0.000000	0.000000	1
57.322042	15.642117	0.000000	-0.026248	0.020088	0.000000	0.033053	1.707213	0.000000	0.000000	0.000000	0.000000	0.000000	1
60.431034	15.642117	0.000000	-0.018514	0.017932	0.000000	0.025775	5.025508	0.000000	0.000000	0.000000	0.000000	0.000000	1
63.540026	15.642117	0.000000	-0.022791	0.031971	0.000000	0.039263	5.390702	0.000000	0.000000	0.000000	0.000000	0.000000	1
66.649018	15.642117	0.000000	-0.026954	0.034129	0.000000	0.043489	-0.761652	0.000000	0.000000	0.000000	0.000000	0.000000	1
69.758010	15.642117	0.000000	-0.023990	0.026062	0.000000	0.035422	-3.057932	0.000000	0.000000	0.000000	0.000000	0.000000	1
72.867002	15.642117	0.000000	-0.021182	0.034134	0.000000	0.040172	-1.833318	0.000000	0.000000	0.000000	0.000000	0.000000	1
75.975994	15.642117	0.000000	0.002043	0.028778	0.000000	0.028851	9.587217	0.000000	0.000000	0.000000	0.000000	0.000000	1
79.084987	15.642117	0.000000	-0.011577	0.049103	0.000000	0.050449	26.673859	0.000000	0.000000	0.000000	0.000000	0.000000	1
82.193979	15.642117	0.000000	0.006272	0.059642	0.000000	0.059970	22.693134	0.000000	0.000000	0.000000	0.000000	0.000000	1
85.302971	15.642117	0.000000	0.079120	0.074721	0.000000	0.108827	24.220317	0.000000	0.000000	0.000000	0.000000	0.000000	2
88.411963	15.642117	0.000000	0.156242	0.199982	0.000000	0.253780	55.560315	0.000000	0.000000	0.000000	0.000000	0.000000	2
91.520955	15.642117	0.000000	0.302339	0.440418	0.000000	0.534207	68.888895	0.000000	0.000000	0.000000	0.000000	0.000000	2
94.629947	15.642117	0.000000	0.339325	0.543219	0.000000	0.640490	14.814097	0.000000	0.000000	0.000000	0.000000	0.000000	2
97.738939	15.642117	0.000000	0.266760	0.542762	0.000000	0.604774	-56.525160	0.000000	0.000000	0.000000	0.000000	0.000000	1
100.847931	15.642117	0.000000	0.289809	0.402999	0.000000	0.496384	-69.177458	0.000000	0.000000	0.000000	0.000000	0.000000	1
103.956923	15.642117	0.000000	0.367517	0.284698	0.000000	0.464889	-43.856524	0.000000	0.000000	0.000000	0.000000	0.000000	1
107.065915	15.642117	0.000000	0.522004	0.203353	0.000000	0.560214	-10.668805	0.000000	0.000000	0.000000	0.000000	0.000000	2
110.174908	15.642117	0.000000	0.461651	0.180626	0.000000	0.495729	19.324272	0.000000	0.000000	0.000000	0.000000	0.000000	2
113.283900	15.642117	0.000000	0.384097	0.238810	0.000000	0.452284	15.960888	0.000000	0.000000	0.000000	0.000000	0.000000	1
116.392892	15.642117	0.000000	0.316833	0.221939	0.000000	0.386834	-25.088114	0.000000	0.000000	0.000000	0.000000	0.000000	1
119.501884	15.642117	0.000000	0.081406	0.034017	0.000000	0.088227	-47.535359	0.000000	0.000000	0.000000	0.000000	0.000000	2
122.610876	15.642117	0.000000	-0.002459	0.001017	0.000000	0.002661	-23.509550	0.000000	0.000000	0.000000	0.000000	0.000000	1