TITLE = "PIV Result  1215 "
VARIABLES = "X (mm)""Y (mm)""Z (mm)""U (m/s)""V (m/s)""W (m/s)""Speed (m/s)""Vorticity""U-std""V-std""W-std""Speed-std""Vorticity-std""Flag"
ZONE T="ZONE 1215 "
I= 51 , J= 16 , K= 1 , F=POINT
DT=(DOUBLE DOUBLE DOUBLE DOUBLE DOUBLE DOUBLE DOUBLE DOUBLE DOUBLE DOUBLE DOUBLE DOUBLE DOUBLE DOUBLE)
4.469176	3.206148	0.000000	-0.000037	0.002229	0.000000	0.002229	1.909621	0.000000	0.000000	0.000000	0.000000	0.000000	1
7.578168	3.206148	0.000000	0.004481	0.007370	0.000000	0.008626	1.003452	0.000000	0.000000	0.000000	0.000000	0.000000	1
10.687160	3.206148	0.000000	0.004379	0.005020	0.000000	0.006662	-0.420648	0.000000	0.000000	0.000000	0.000000	0.000000	1
13.796152	3.206148	0.000000	0.003564	0.001479	0.000000	0.003859	-0.071751	0.000000	0.000000	0.000000	0.000000	0.000000	1
16.905145	3.206148	0.000000	0.005943	0.004683	0.000000	0.007566	0.806303	0.000000	0.000000	0.000000	0.000000	0.000000	1
20.014137	3.206148	0.000000	0.004798	0.004806	0.000000	0.006791	0.414212	0.000000	0.000000	0.000000	0.000000	0.000000	1
23.123129	3.206148	0.000000	0.000040	0.005497	0.000000	0.005497	-0.287876	0.000000	0.000000	0.000000	0.000000	0.000000	1
26.232121	3.206148	0.000000	0.005091	0.007606	0.000000	0.009152	-0.605101	0.000000	0.000000	0.000000	0.000000	0.000000	1
29.341113	3.206148	0.000000	0.007790	0.008471	0.000000	0.011508	-0.529406	0.000000	0.000000	0.000000	0.000000	0.000000	1
32.450105	3.206148	0.000000	0.004733	0.007536	0.000000	0.008900	-1.358991	0.000000	0.000000	0.000000	0.000000	0.000000	1
35.559097	3.206148	0.000000	-0.001668	-0.000624	0.000000	0.001781	-3.081534	0.000000	0.000000	0.000000	0.000000	0.000000	1
38.668089	3.206148	0.000000	-0.001166	-0.000519	0.000000	0.001276	-5.382143	0.000000	0.000000	0.000000	0.000000	0.000000	1
41.777081	3.206148	0.000000	-0.001734	-0.000036	0.000000	0.001734	-6.002087	0.000000	0.000000	0.000000	0.000000	0.000000	1
44.886073	3.206148	0.000000	-0.003349	-0.000624	0.000000	0.003406	-3.435352	0.000000	0.000000	0.000000	0.000000	0.000000	1
47.995066	3.206148	0.000000	0.004267	-0.000800	0.000000	0.004341	-2.091903	0.000000	0.000000	0.000000	0.000000	0.000000	1
51.104058	3.206148	0.000000	0.005428	-0.002298	0.000000	0.005894	-3.585820	0.000000	0.000000	0.000000	0.000000	0.000000	1
54.213050	3.206148	0.000000	0.002538	-0.003830	0.000000	0.004594	11.517584	0.000000	0.000000	0.000000	0.000000	0.000000	1
57.322042	3.206148	0.000000	-0.040353	0.001212	0.000000	0.040371	32.407392	0.000000	0.000000	0.000000	0.000000	0.000000	1
60.431034	3.206148	0.000000	-0.100068	0.045432	0.000000	0.109899	24.118476	0.000000	0.000000	0.000000	0.000000	0.000000	2
63.540026	3.206148	0.000000	-0.120752	0.063281	0.000000	0.136329	31.313407	0.000000	0.000000	0.000000	0.000000	0.000000	2
66.649018	3.206148	0.000000	-0.131094	0.072205	0.000000	0.149664	53.926624	0.000000	0.000000	0.000000	0.000000	0.000000	2
69.758010	3.206148	0.000000	-0.193555	0.096058	0.000000	0.216080	39.910312	0.000000	0.000000	0.000000	0.000000	0.000000	2
72.867002	3.206148	0.000000	-0.161432	0.143041	0.000000	0.215687	24.246099	0.000000	0.000000	0.000000	0.000000	0.000000	2
75.975994	3.206148	0.000000	-0.233966	0.166170	0.000000	0.286972	21.978032	0.000000	0.000000	0.000000	0.000000	0.000000	1
79.084987	3.206148	0.000000	-0.217941	0.235877	0.000000	0.321149	73.592945	0.000000	0.000000	0.000000	0.000000	0.000000	1
82.193979	3.206148	0.000000	-0.184841	0.553238	0.000000	0.583300	75.305595	0.000000	0.000000	0.000000	0.000000	0.000000	1
85.302971	3.206148	0.000000	-0.185557	0.625419	0.000000	0.652366	-20.928198	0.000000	0.000000	0.000000	0.000000	0.000000	1
88.411963	3.206148	0.000000	0.034130	0.718534	0.000000	0.719344	-102.329856	0.000000	0.000000	0.000000	0.000000	0.000000	1
91.520955	3.206148	0.000000	0.000000	0.030799	0.000000	0.030799	-75.433833	0.000000	0.000000	0.000000	0.000000	0.000000	2
94.629947	3.206148	0.000000	0.005859	0.017824	0.000000	0.018762	-6.399931	0.000000	0.000000	0.000000	0.000000	0.000000	1
97.738939	3.206148	0.000000	0.001278	0.000233	0.000000	0.001299	-3.771214	0.000000	0.000000	0.000000	0.000000	0.000000	1
100.847931	3.206148	0.000000	0.007406	-0.000639	0.000000	0.007434	-5.294776	0.000000	0.000000	0.000000	0.000000	0.000000	1
103.956923	3.206148	0.000000	0.010257	-0.000824	0.000000	0.010290	-5.599440	0.000000	0.000000	0.000000	0.000000	0.000000	1
107.065915	3.206148	0.000000	0.012322	-0.001236	0.000000	0.012384	-4.068443	0.000000	0.000000	0.000000	0.000000	0.000000	1
110.174908	3.206148	0.000000	0.009226	-0.001903	0.000000	0.009420	-2.505562	0.000000	0.000000	0.000000	0.000000	0.000000	1
113.283900	3.206148	0.000000	0.006145	-0.000918	0.000000	0.006213	-2.357139	0.000000	0.000000	0.000000	0.000000	0.000000	1
116.392892	3.206148	0.000000	0.001577	-0.000278	0.000000	0.001601	-0.705781	0.000000	0.000000	0.000000	0.000000	0.000000	1
119.501884	3.206148	0.000000	0.000822	-0.000530	0.000000	0.000978	0.579106	0.000000	0.000000	0.000000	0.000000	0.000000	1
122.610876	3.206148	0.000000	-0.001030	0.000088	0.000000	0.001034	0.299370	0.000000	0.000000	0.000000	0.000000	0.000000	1
125.719868	3.206148	0.000000	0.000096	-0.000136	0.000000	0.000167	0.277089	0.000000	0.000000	0.000000	0.000000	0.000000	1
128.828860	3.206148	0.000000	-0.002685	-0.000504	0.000000	0.002731	0.898122	0.000000	0.000000	0.000000	0.000000	0.000000	1
131.937852	3.206148	0.000000	-0.002316	-0.000218	0.000000	0.002327	2.062435	0.000000	0.000000	0.000000	0.000000	0.000000	1
135.046844	3.206148	0.000000	-0.005024	0.008054	0.000000	0.009493	1.706026	0.000000	0.000000	0.000000	0.000000	0.000000	1
138.155836	3.206148	0.000000	-0.005311	0.009075	0.000000	0.010515	-0.836795	0.000000	0.000000	0.000000	0.000000	0.000000	1
141.264829	3.206148	0.000000	-0.002960	0.004279	0.000000	0.005203	-1.067683	0.000000	0.000000	0.000000	0.000000	0.000000	1
144.373821	3.206148	0.000000	-0.004808	0.004625	0.000000	0.006671	0.968030	0.000000	0.000000	0.000000	0.000000	0.000000	1
147.482813	3.206148	0.000000	-0.007383	0.009666	0.000000	0.012164	0.881443	0.000000	0.000000	0.000000	0.000000	0.000000	1
150.591805	3.206148	0.000000	-0.006571	0.009503	0.000000	0.011554	-0.322925	0.000000	0.000000	0.000000	0.000000	0.000000	1
153.700797	3.206148	0.000000	-0.002324	0.005939	0.000000	0.006378	-0.193610	0.000000	0.000000	0.000000	0.000000	0.000000	1
156.809789	3.206148	0.000000	-0.005538	0.006292	0.000000	0.008382	-0.022641	0.000000	0.000000	0.000000	0.000000	0.000000	1
159.918781	3.206148	0.000000	-0.005649	0.006179	0.000000	0.008372	-0.363257	0.000000	0.000000	0.000000	0.000000	0.000000	1
4.469176	6.315140	0.000000	-0.000423	0.003365	0.000000	0.003391	1.627536	0.000000	0.000000	0.000000	0.000000	0.000000	1
7.578168	6.315140	0.000000	0.002363	0.007593	0.000000	0.007952	0.858345	0.000000	0.000000	0.000000	0.000000	0.000000	1
10.687160	6.315140	0.000000	0.003233	0.007284	0.000000	0.007969	-0.388420	0.000000	0.000000	0.000000	0.000000	0.000000	1
13.796152	6.315140	0.000000	0.003849	0.004128	0.000000	0.005644	-0.244876	0.000000	0.000000	0.000000	0.000000	0.000000	1
16.905145	6.315140	0.000000	0.002873	0.003084	0.000000	0.004215	0.446913	0.000000	0.000000	0.000000	0.000000	0.000000	1
20.014137	6.315140	0.000000	0.002813	0.002989	0.000000	0.004104	0.429404	0.000000	0.000000	0.000000	0.000000	0.000000	1
23.123129	6.315140	0.000000	0.005123	0.005464	0.000000	0.007490	0.357732	0.000000	0.000000	0.000000	0.000000	0.000000	1
26.232121	6.315140	0.000000	0.009332	0.009033	0.000000	0.012988	0.176368	0.000000	0.000000	0.000000	0.000000	0.000000	1
29.341113	6.315140	0.000000	0.008179	0.008920	0.000000	0.012102	0.284921	0.000000	0.000000	0.000000	0.000000	0.000000	1
32.450105	6.315140	0.000000	0.005478	0.008282	0.000000	0.009930	-0.142900	0.000000	0.000000	0.000000	0.000000	0.000000	1
35.559097	6.315140	0.000000	0.003984	0.008646	0.000000	0.009519	-1.526335	0.000000	0.000000	0.000000	0.000000	0.000000	1
38.668089	6.315140	0.000000	0.015318	0.006547	0.000000	0.016658	-3.491917	0.000000	0.000000	0.000000	0.000000	0.000000	1
41.777081	6.315140	0.000000	0.017033	-0.001490	0.000000	0.017098	-4.674926	0.000000	0.000000	0.000000	0.000000	0.000000	1
44.886073	6.315140	0.000000	0.007862	-0.002763	0.000000	0.008334	-0.358061	0.000000	0.000000	0.000000	0.000000	0.000000	1
47.995066	6.315140	0.000000	0.007023	0.000496	0.000000	0.007040	6.636970	0.000000	0.000000	0.000000	0.000000	0.000000	1
51.104058	6.315140	0.000000	0.021325	0.005516	0.000000	0.022027	6.272647	0.000000	0.000000	0.000000	0.000000	0.000000	1
54.213050	6.315140	0.000000	0.010439	0.001384	0.000000	0.010531	21.279263	0.000000	0.000000	0.000000	0.000000	0.000000	1
57.322042	6.315140	0.000000	-0.127106	0.090186	0.000000	0.155850	44.380359	0.000000	0.000000	0.000000	0.000000	0.000000	2
60.431034	6.315140	0.000000	-0.169812	0.119792	0.000000	0.207814	37.685819	0.000000	0.000000	0.000000	0.000000	0.000000	2
63.540026	6.315140	0.000000	-0.141436	0.081130	0.000000	0.163053	36.219175	0.000000	0.000000	0.000000	0.000000	0.000000	1
66.649018	6.315140	0.000000	-0.321904	0.180511	0.000000	0.369061	43.476153	0.000000	0.000000	0.000000	0.000000	0.000000	1
69.758010	6.315140	0.000000	-0.309073	0.201164	0.000000	0.368772	35.095912	0.000000	0.000000	0.000000	0.000000	0.000000	1
72.867002	6.315140	0.000000	-0.225677	0.119911	0.000000	0.255556	32.162335	0.000000	0.000000	0.000000	0.000000	0.000000	1
75.975994	6.315140	0.000000	-0.219301	0.203236	0.000000	0.298994	37.957222	0.000000	0.000000	0.000000	0.000000	0.000000	1
79.084987	6.315140	0.000000	-0.211208	0.272214	0.000000	0.344542	62.095761	0.000000	0.000000	0.000000	0.000000	0.000000	1
82.193979	6.315140	0.000000	-0.272873	0.671470	0.000000	0.724798	29.154403	0.000000	0.000000	0.000000	0.000000	0.000000	1
85.302971	6.315140	0.000000	-0.133898	0.701502	0.000000	0.714167	-62.965312	0.000000	0.000000	0.000000	0.000000	0.000000	2
88.411963	6.315140	0.000000	0.008894	0.235963	0.000000	0.236130	-94.011305	0.000000	0.000000	0.000000	0.000000	0.000000	2
91.520955	6.315140	0.000000	0.019038	0.043774	0.000000	0.047734	-47.021699	0.000000	0.000000	0.000000	0.000000	0.000000	1
94.629947	6.315140	0.000000	0.004031	0.009589	0.000000	0.010402	-3.434426	0.000000	0.000000	0.000000	0.000000	0.000000	1
97.738939	6.315140	0.000000	0.012706	0.021560	0.000000	0.025026	-1.089011	0.000000	0.000000	0.000000	0.000000	0.000000	1
100.847931	6.315140	0.000000	0.022449	0.017225	0.000000	0.028296	-2.514951	0.000000	0.000000	0.000000	0.000000	0.000000	1
103.956923	6.315140	0.000000	0.028315	0.016343	0.000000	0.032693	-3.234352	0.000000	0.000000	0.000000	0.000000	0.000000	1
107.065915	6.315140	0.000000	0.015518	0.002543	0.000000	0.015725	-1.417543	0.000000	0.000000	0.000000	0.000000	0.000000	2
110.174908	6.315140	0.000000	0.025878	0.007931	0.000000	0.027066	1.682593	0.000000	0.000000	0.000000	0.000000	0.000000	1
113.283900	6.315140	0.000000	0.010607	0.012029	0.000000	0.016038	0.649511	0.000000	0.000000	0.000000	0.000000	0.000000	1
116.392892	6.315140	0.000000	-0.001542	-0.000550	0.000000	0.001637	-0.344332	0.000000	0.000000	0.000000	0.000000	0.000000	1
119.501884	6.315140	0.000000	-0.001440	-0.001173	0.000000	0.001857	0.175904	0.000000	0.000000	0.000000	0.000000	0.000000	1
122.610876	6.315140	0.000000	-0.000613	-0.000939	0.000000	0.001122	0.703805	0.000000	0.000000	0.000000	0.000000	0.000000	1
125.719868	6.315140	0.000000	-0.000222	0.000410	0.000000	0.000466	1.272279	0.000000	0.000000	0.000000	0.000000	0.000000	1
128.828860	6.315140	0.000000	-0.002304	0.003259	0.000000	0.003992	1.944325	0.000000	0.000000	0.000000	0.000000	0.000000	1
131.937852	6.315140	0.000000	-0.006591	0.007828	0.000000	0.010234	2.430010	0.000000	0.000000	0.000000	0.000000	0.000000	1
135.046844	6.315140	0.000000	-0.006977	0.010228	0.000000	0.012381	1.169503	0.000000	0.000000	0.000000	0.000000	0.000000	1
138.155836	6.315140	0.000000	-0.003549	0.013336	0.000000	0.013800	-0.851908	0.000000	0.000000	0.000000	0.000000	0.000000	1
141.264829	6.315140	0.000000	-0.003941	0.004190	0.000000	0.005752	-0.836915	0.000000	0.000000	0.000000	0.000000	0.000000	1
144.373821	6.315140	0.000000	-0.004687	0.004430	0.000000	0.006449	0.717773	0.000000	0.000000	0.000000	0.000000	0.000000	1
147.482813	6.315140	0.000000	-0.007568	0.009918	0.000000	0.012476	0.855663	0.000000	0.000000	0.000000	0.000000	0.000000	1
150.591805	6.315140	0.000000	-0.007197	0.009639	0.000000	0.012030	-0.150652	0.000000	0.000000	0.000000	0.000000	0.000000	1
153.700797	6.315140	0.000000	-0.005232	0.005284	0.000000	0.007436	-0.283394	0.000000	0.000000	0.000000	0.000000	0.000000	1
156.809789	6.315140	0.000000	-0.003802	0.005736	0.000000	0.006881	-0.137209	0.000000	0.000000	0.000000	0.000000	0.000000	1
159.918781	6.315140	0.000000	-0.004639	0.006335	0.000000	0.007852	-0.394530	0.000000	0.000000	0.000000	0.000000	0.000000	1
4.469176	9.424132	0.000000	-0.000942	0.004309	0.000000	0.004411	0.679176	0.000000	0.000000	0.000000	0.000000	0.000000	1
7.578168	9.424132	0.000000	0.001599	0.007164	0.000000	0.007340	0.432337	0.000000	0.000000	0.000000	0.000000	0.000000	1
10.687160	9.424132	0.000000	0.002572	0.006551	0.000000	0.007038	-0.043512	0.000000	0.000000	0.000000	0.000000	0.000000	1
13.796152	9.424132	0.000000	0.003600	0.003863	0.000000	0.005280	-0.197717	0.000000	0.000000	0.000000	0.000000	0.000000	1
16.905145	9.424132	0.000000	0.001354	0.002874	0.000000	0.003177	-0.246435	0.000000	0.000000	0.000000	0.000000	0.000000	1
20.014137	9.424132	0.000000	0.002688	0.002678	0.000000	0.003794	-0.036165	0.000000	0.000000	0.000000	0.000000	0.000000	1
23.123129	9.424132	0.000000	0.004868	0.003998	0.000000	0.006300	0.665033	0.000000	0.000000	0.000000	0.000000	0.000000	1
26.232121	9.424132	0.000000	0.005916	0.005060	0.000000	0.007785	0.333548	0.000000	0.000000	0.000000	0.000000	0.000000	1
29.341113	9.424132	0.000000	0.003541	0.000729	0.000000	0.003615	1.014952	0.000000	0.000000	0.000000	0.000000	0.000000	1
32.450105	9.424132	0.000000	0.003510	0.004821	0.000000	0.005963	1.711188	0.000000	0.000000	0.000000	0.000000	0.000000	1
35.559097	9.424132	0.000000	0.005639	0.007430	0.000000	0.009328	0.792506	0.000000	0.000000	0.000000	0.000000	0.000000	1
38.668089	9.424132	0.000000	0.015078	0.008017	0.000000	0.017077	1.139662	0.000000	0.000000	0.000000	0.000000	0.000000	1
41.777081	9.424132	0.000000	0.031503	0.013293	0.000000	0.034192	1.715643	0.000000	0.000000	0.000000	0.000000	0.000000	1
44.886073	9.424132	0.000000	0.004441	0.000974	0.000000	0.004547	7.886366	0.000000	0.000000	0.000000	0.000000	0.000000	1
47.995066	9.424132	0.000000	-0.028144	0.017584	0.000000	0.033186	15.985513	0.000000	0.000000	0.000000	0.000000	0.000000	2
51.104058	9.424132	0.000000	-0.042441	0.046263	0.000000	0.062781	13.068908	0.000000	0.000000	0.000000	0.000000	0.000000	1
54.213050	9.424132	0.000000	-0.007099	0.037066	0.000000	0.037739	28.691584	0.000000	0.000000	0.000000	0.000000	0.000000	1
57.322042	9.424132	0.000000	-0.240895	0.134986	0.000000	0.276137	47.245959	0.000000	0.000000	0.000000	0.000000	0.000000	2
60.431034	9.424132	0.000000	-0.290089	0.254072	0.000000	0.385622	34.629418	0.000000	0.000000	0.000000	0.000000	0.000000	1
63.540026	9.424132	0.000000	-0.297876	0.270644	0.000000	0.402465	22.182082	0.000000	0.000000	0.000000	0.000000	0.000000	1
66.649018	9.424132	0.000000	-0.355962	0.237568	0.000000	0.427958	17.121234	0.000000	0.000000	0.000000	0.000000	0.000000	1
69.758010	9.424132	0.000000	-0.389769	0.256064	0.000000	0.466357	20.217728	0.000000	0.000000	0.000000	0.000000	0.000000	1
72.867002	9.424132	0.000000	-0.351425	0.353550	0.000000	0.498495	23.476089	0.000000	0.000000	0.000000	0.000000	0.000000	1
75.975994	9.424132	0.000000	-0.262121	0.377395	0.000000	0.459494	56.626333	0.000000	0.000000	0.000000	0.000000	0.000000	2
79.084987	9.424132	0.000000	-0.173104	0.698715	0.000000	0.719838	53.347450	0.000000	0.000000	0.000000	0.000000	0.000000	1
82.193979	9.424132	0.000000	-0.219062	0.625604	0.000000	0.662848	-41.907457	0.000000	0.000000	0.000000	0.000000	0.000000	2
85.302971	9.424132	0.000000	-0.031296	0.306383	0.000000	0.307978	-96.632062	0.000000	0.000000	0.000000	0.000000	0.000000	2
88.411963	9.424132	0.000000	0.018477	0.023899	0.000000	0.030209	-58.011498	0.000000	0.000000	0.000000	0.000000	0.000000	1
91.520955	9.424132	0.000000	0.008206	0.009373	0.000000	0.012457	-11.225904	0.000000	0.000000	0.000000	0.000000	0.000000	1
94.629947	9.424132	0.000000	0.005489	0.008221	0.000000	0.009885	1.203470	0.000000	0.000000	0.000000	0.000000	0.000000	1
97.738939	9.424132	0.000000	0.012637	0.017769	0.000000	0.021804	3.868444	0.000000	0.000000	0.000000	0.000000	0.000000	1
100.847931	9.424132	0.000000	0.020539	0.019808	0.000000	0.028535	2.393050	0.000000	0.000000	0.000000	0.000000	0.000000	1
103.956923	9.424132	0.000000	0.023157	0.017233	0.000000	0.028866	-0.389042	0.000000	0.000000	0.000000	0.000000	0.000000	1
107.065915	9.424132	0.000000	0.011076	0.007012	0.000000	0.013109	-0.811626	0.000000	0.000000	0.000000	0.000000	0.000000	1
110.174908	9.424132	0.000000	-0.000238	0.000826	0.000000	0.000860	1.982397	0.000000	0.000000	0.000000	0.000000	0.000000	1
113.283900	9.424132	0.000000	-0.002510	0.000745	0.000000	0.002618	1.722604	0.000000	0.000000	0.000000	0.000000	0.000000	1
116.392892	9.424132	0.000000	-0.002713	0.001254	0.000000	0.002989	-0.026432	0.000000	0.000000	0.000000	0.000000	0.000000	1
119.501884	9.424132	0.000000	0.000156	0.000296	0.000000	0.000335	-0.001299	0.000000	0.000000	0.000000	0.000000	0.000000	1
122.610876	9.424132	0.000000	-0.002848	-0.001397	0.000000	0.003173	1.268328	0.000000	0.000000	0.000000	0.000000	0.000000	1
125.719868	9.424132	0.000000	-0.003159	0.006685	0.000000	0.007393	2.366486	0.000000	0.000000	0.000000	0.000000	0.000000	1
128.828860	9.424132	0.000000	-0.006217	0.010582	0.000000	0.012273	3.180693	0.000000	0.000000	0.000000	0.000000	0.000000	1
131.937852	9.424132	0.000000	-0.013361	0.018924	0.000000	0.023165	1.411064	0.000000	0.000000	0.000000	0.000000	0.000000	1
135.046844	9.424132	0.000000	-0.011620	0.016306	0.000000	0.020023	-1.048738	0.000000	0.000000	0.000000	0.000000	0.000000	1
138.155836	9.424132	0.000000	-0.004342	0.004437	0.000000	0.006209	-0.374927	0.000000	0.000000	0.000000	0.000000	0.000000	1
141.264829	9.424132	0.000000	-0.003816	0.005457	0.000000	0.006659	0.324125	0.000000	0.000000	0.000000	0.000000	0.000000	1
144.373821	9.424132	0.000000	-0.004094	0.005854	0.000000	0.007144	0.631329	0.000000	0.000000	0.000000	0.000000	0.000000	1
147.482813	9.424132	0.000000	-0.007026	0.007396	0.000000	0.010201	0.720874	0.000000	0.000000	0.000000	0.000000	0.000000	1
150.591805	9.424132	0.000000	-0.008215	0.011625	0.000000	0.014235	0.062580	0.000000	0.000000	0.000000	0.000000	0.000000	1
153.700797	9.424132	0.000000	-0.006825	0.009212	0.000000	0.011465	-0.291931	0.000000	0.000000	0.000000	0.000000	0.000000	1
156.809789	9.424132	0.000000	-0.003691	0.006795	0.000000	0.007733	0.110130	0.000000	0.000000	0.000000	0.000000	0.000000	1
159.918781	9.424132	0.000000	-0.002695	0.005602	0.000000	0.006217	0.368644	0.000000	0.000000	0.000000	0.000000	0.000000	1
4.469176	12.533124	0.000000	0.002965	0.005366	0.000000	0.006131	-0.195314	0.000000	0.000000	0.000000	0.000000	0.000000	1
7.578168	12.533124	0.000000	-0.000087	0.004813	0.000000	0.004813	-0.284015	0.000000	0.000000	0.000000	0.000000	0.000000	1
10.687160	12.533124	0.000000	0.000381	0.003352	0.000000	0.003374	-0.118595	0.000000	0.000000	0.000000	0.000000	0.000000	1
13.796152	12.533124	0.000000	0.002403	0.004197	0.000000	0.004836	0.030840	0.000000	0.000000	0.000000	0.000000	0.000000	1
16.905145	12.533124	0.000000	0.002645	0.004017	0.000000	0.004809	-0.411604	0.000000	0.000000	0.000000	0.000000	0.000000	1
20.014137	12.533124	0.000000	0.005408	0.002269	0.000000	0.005865	-0.278250	0.000000	0.000000	0.000000	0.000000	0.000000	1
23.123129	12.533124	0.000000	0.005071	0.003397	0.000000	0.006104	0.287982	0.000000	0.000000	0.000000	0.000000	0.000000	1
26.232121	12.533124	0.000000	0.002862	0.004022	0.000000	0.004936	-1.608822	0.000000	0.000000	0.000000	0.000000	0.000000	1
29.341113	12.533124	0.000000	-0.002602	-0.008996	0.000000	0.009365	-0.009207	0.000000	0.000000	0.000000	0.000000	0.000000	1
32.450105	12.533124	0.000000	0.002464	-0.000549	0.000000	0.002525	3.469656	0.000000	0.000000	0.000000	0.000000	0.000000	1
35.559097	12.533124	0.000000	0.008042	0.007686	0.000000	0.011124	3.390689	0.000000	0.000000	0.000000	0.000000	0.000000	1
38.668089	12.533124	0.000000	0.010792	0.015080	0.000000	0.018544	4.132814	0.000000	0.000000	0.000000	0.000000	0.000000	1
41.777081	12.533124	0.000000	0.006360	0.018776	0.000000	0.019823	8.253365	0.000000	0.000000	0.000000	0.000000	0.000000	1
44.886073	12.533124	0.000000	-0.030864	0.016551	0.000000	0.035022	17.500526	0.000000	0.000000	0.000000	0.000000	0.000000	2
47.995066	12.533124	0.000000	-0.058506	0.050702	0.000000	0.077419	17.882627	0.000000	0.000000	0.000000	0.000000	0.000000	1
51.104058	12.533124	0.000000	-0.046433	0.077743	0.000000	0.090554	13.372436	0.000000	0.000000	0.000000	0.000000	0.000000	1
54.213050	12.533124	0.000000	-0.063811	0.060606	0.000000	0.088006	37.944329	0.000000	0.000000	0.000000	0.000000	0.000000	2
57.322042	12.533124	0.000000	-0.223444	0.216647	0.000000	0.311229	55.711678	0.000000	0.000000	0.000000	0.000000	0.000000	1
60.431034	12.533124	0.000000	-0.290054	0.296116	0.000000	0.414507	35.575772	0.000000	0.000000	0.000000	0.000000	0.000000	1
63.540026	12.533124	0.000000	-0.301466	0.318837	0.000000	0.438793	30.106383	0.000000	0.000000	0.000000	0.000000	0.000000	1
66.649018	12.533124	0.000000	-0.354747	0.346972	0.000000	0.496221	40.289649	0.000000	0.000000	0.000000	0.000000	0.000000	1
69.758010	12.533124	0.000000	-0.334420	0.402737	0.000000	0.523483	27.355951	0.000000	0.000000	0.000000	0.000000	0.000000	1
72.867002	12.533124	0.000000	-0.346973	0.473629	0.000000	0.587124	-1.430158	0.000000	0.000000	0.000000	0.000000	0.000000	1
75.975994	12.533124	0.000000	-0.341387	0.351874	0.000000	0.490266	21.707796	0.000000	0.000000	0.000000	0.000000	0.000000	1
79.084987	12.533124	0.000000	-0.378519	0.506626	0.000000	0.632414	-1.900816	0.000000	0.000000	0.000000	0.000000	0.000000	1
82.193979	12.533124	0.000000	-0.141154	0.389090	0.000000	0.413902	-79.988493	0.000000	0.000000	0.000000	0.000000	0.000000	2
85.302971	12.533124	0.000000	0.007880	0.057584	0.000000	0.058121	-62.725956	0.000000	0.000000	0.000000	0.000000	0.000000	1
88.411963	12.533124	0.000000	0.015290	0.046246	0.000000	0.048708	-18.526149	0.000000	0.000000	0.000000	0.000000	0.000000	1
91.520955	12.533124	0.000000	0.007601	0.009604	0.000000	0.012248	-3.241416	0.000000	0.000000	0.000000	0.000000	0.000000	1
94.629947	12.533124	0.000000	0.005259	0.009513	0.000000	0.010870	4.098459	0.000000	0.000000	0.000000	0.000000	0.000000	1
97.738939	12.533124	0.000000	-0.005438	0.017833	0.000000	0.018643	4.805441	0.000000	0.000000	0.000000	0.000000	0.000000	1
100.847931	12.533124	0.000000	0.001290	0.018701	0.000000	0.018745	2.981360	0.000000	0.000000	0.000000	0.000000	0.000000	1
103.956923	12.533124	0.000000	0.022329	0.017192	0.000000	0.028181	1.454204	0.000000	0.000000	0.000000	0.000000	0.000000	1
107.065915	12.533124	0.000000	0.012921	0.013571	0.000000	0.018738	-0.810783	0.000000	0.000000	0.000000	0.000000	0.000000	1
110.174908	12.533124	0.000000	0.000153	0.001328	0.000000	0.001337	-0.483912	0.000000	0.000000	0.000000	0.000000	0.000000	1
113.283900	12.533124	0.000000	-0.000756	0.000515	0.000000	0.000915	0.869647	0.000000	0.000000	0.000000	0.000000	0.000000	1
116.392892	12.533124	0.000000	-0.002107	0.002779	0.000000	0.003488	0.060922	0.000000	0.000000	0.000000	0.000000	0.000000	1
119.501884	12.533124	0.000000	-0.000864	0.002038	0.000000	0.002214	-0.108511	0.000000	0.000000	0.000000	0.000000	0.000000	1
122.610876	12.533124	0.000000	-0.003827	0.005813	0.000000	0.006959	1.134693	0.000000	0.000000	0.000000	0.000000	0.000000	1
125.719868	12.533124	0.000000	-0.003541	0.010055	0.000000	0.010660	1.580279	0.000000	0.000000	0.000000	0.000000	0.000000	1
128.828860	12.533124	0.000000	-0.010668	0.018301	0.000000	0.021184	1.050030	0.000000	0.000000	0.000000	0.000000	0.000000	1
131.937852	12.533124	0.000000	-0.017505	0.026308	0.000000	0.031600	-0.995349	0.000000	0.000000	0.000000	0.000000	0.000000	1
135.046844	12.533124	0.000000	-0.004744	0.007020	0.000000	0.008473	-1.315059	0.000000	0.000000	0.000000	0.000000	0.000000	1
138.155836	12.533124	0.000000	-0.010469	0.010321	0.000000	0.014701	1.085622	0.000000	0.000000	0.000000	0.000000	0.000000	1
141.264829	12.533124	0.000000	-0.004562	0.013203	0.000000	0.013969	0.655395	0.000000	0.000000	0.000000	0.000000	0.000000	1
144.373821	12.533124	0.000000	-0.009431	0.011547	0.000000	0.014909	-0.583011	0.000000	0.000000	0.000000	0.000000	0.000000	1
147.482813	12.533124	0.000000	-0.007834	0.008924	0.000000	0.011874	-0.399864	0.000000	0.000000	0.000000	0.000000	0.000000	1
150.591805	12.533124	0.000000	-0.005910	0.008738	0.000000	0.010549	-0.562466	0.000000	0.000000	0.000000	0.000000	0.000000	1
153.700797	12.533124	0.000000	-0.007655	0.011367	0.000000	0.013705	-1.143174	0.000000	0.000000	0.000000	0.000000	0.000000	1
156.809789	12.533124	0.000000	-0.006964	0.008319	0.000000	0.010849	-0.546765	0.000000	0.000000	0.000000	0.000000	0.000000	1
159.918781	12.533124	0.000000	-0.011144	0.005022	0.000000	0.012223	0.406305	0.000000	0.000000	0.000000	0.000000	0.000000	1
4.469176	15.642117	0.000000	0.002383	0.004098	0.000000	0.004741	0.173860	0.000000	0.000000	0.000000	0.000000	0.000000	1
7.578168	15.642117	0.000000	0.002249	0.003897	0.000000	0.004499	-0.120417	0.000000	0.000000	0.000000	0.000000	0.000000	1
10.687160	15.642117	0.000000	0.002147	0.003021	0.000000	0.003706	-0.200748	0.000000	0.000000	0.000000	0.000000	0.000000	1
13.796152	15.642117	0.000000	0.002005	0.003686	0.000000	0.004196	-0.063426	0.000000	0.000000	0.000000	0.000000	0.000000	1
16.905145	15.642117	0.000000	0.001993	0.003162	0.000000	0.003738	-0.231580	0.000000	0.000000	0.000000	0.000000	0.000000	1
20.014137	15.642117	0.000000	0.003627	-0.000888	0.000000	0.003735	-0.044514	0.000000	0.000000	0.000000	0.000000	0.000000	1
23.123129	15.642117	0.000000	0.004581	-0.001414	0.000000	0.004794	0.358608	0.000000	0.000000	0.000000	0.000000	0.000000	1
26.232121	15.642117	0.000000	0.003752	-0.001411	0.000000	0.004009	-2.266430	0.000000	0.000000	0.000000	0.000000	0.000000	1
29.341113	15.642117	0.000000	0.002675	-0.018853	0.000000	0.019042	2.072722	0.000000	0.000000	0.000000	0.000000	0.000000	1
32.450105	15.642117	0.000000	-0.000043	0.000293	0.000000	0.000296	9.268586	0.000000	0.000000	0.000000	0.000000	0.000000	1
35.559097	15.642117	0.000000	0.000170	0.013937	0.000000	0.013938	7.315271	0.000000	0.000000	0.000000	0.000000	0.000000	1
38.668089	15.642117	0.000000	-0.002851	0.017750	0.000000	0.017977	7.814049	0.000000	0.000000	0.000000	0.000000	0.000000	1
41.777081	15.642117	0.000000	-0.005943	0.009915	0.000000	0.011559	25.925751	0.000000	0.000000	0.000000	0.000000	0.000000	1
44.886073	15.642117	0.000000	-0.080600	0.049269	0.000000	0.094466	43.991386	0.000000	0.000000	0.000000	0.000000	0.000000	1
47.995066	15.642117	0.000000	-0.080541	0.117119	0.000000	0.142140	39.012242	0.000000	0.000000	0.000000	0.000000	0.000000	1
51.104058	15.642117	0.000000	-0.063604	0.115374	0.000000	0.131745	32.205888	0.000000	0.000000	0.000000	0.000000	0.000000	1
54.213050	15.642117	0.000000	-0.177802	0.145002	0.000000	0.229432	54.570682	0.000000	0.000000	0.000000	0.000000	0.000000	2
57.322042	15.642117	0.000000	-0.363004	0.207916	0.000000	0.418331	81.527589	0.000000	0.000000	0.000000	0.000000	0.000000	1
60.431034	15.642117	0.000000	-0.365808	0.351997	0.000000	0.507659	68.305441	0.000000	0.000000	0.000000	0.000000	0.000000	1
63.540026	15.642117	0.000000	-0.372449	0.404598	0.000000	0.549925	59.965610	0.000000	0.000000	0.000000	0.000000	0.000000	1
66.649018	15.642117	0.000000	-0.537165	0.609528	0.000000	0.812447	58.245244	0.000000	0.000000	0.000000	0.000000	0.000000	1
69.758010	15.642117	0.000000	-0.557178	0.649075	0.000000	0.855422	2.291504	0.000000	0.000000	0.000000	0.000000	0.000000	1
72.867002	15.642117	0.000000	-0.346621	0.409413	0.000000	0.536438	-47.311365	0.000000	0.000000	0.000000	0.000000	0.000000	2
75.975994	15.642117	0.000000	-0.351504	0.346717	0.000000	0.493728	-45.727472	0.000000	0.000000	0.000000	0.000000	0.000000	1
79.084987	15.642117	0.000000	-0.183053	0.354260	0.000000	0.398758	-66.707142	0.000000	0.000000	0.000000	0.000000	0.000000	2
82.193979	15.642117	0.000000	-0.023012	0.063568	0.000000	0.067605	-65.418182	0.000000	0.000000	0.000000	0.000000	0.000000	1
85.302971	15.642117	0.000000	-0.002450	0.066197	0.000000	0.066243	-21.173897	0.000000	0.000000	0.000000	0.000000	0.000000	1
88.411963	15.642117	0.000000	0.011680	0.037786	0.000000	0.039550	-7.532531	0.000000	0.000000	0.000000	0.000000	0.000000	2
91.520955	15.642117	0.000000	0.003001	0.008433	0.000000	0.008951	-4.295103	0.000000	0.000000	0.000000	0.000000	0.000000	1
94.629947	15.642117	0.000000	-0.013421	0.010191	0.000000	0.016852	1.523652	0.000000	0.000000	0.000000	0.000000	0.000000	1
97.738939	15.642117	0.000000	-0.010771	0.019083	0.000000	0.021913	0.862096	0.000000	0.000000	0.000000	0.000000	0.000000	1
100.847931	15.642117	0.000000	-0.000678	0.012806	0.000000	0.012824	1.724823	0.000000	0.000000	0.000000	0.000000	0.000000	1
103.956923	15.642117	0.000000	0.006910	0.012961	0.000000	0.014688	3.770863	0.000000	0.000000	0.000000	0.000000	0.000000	1
107.065915	15.642117	0.000000	0.008660	0.015902	0.000000	0.018107	1.230388	0.000000	0.000000	0.000000	0.000000	0.000000	1
110.174908	15.642117	0.000000	-0.008533	0.011557	0.000000	0.014366	0.312488	0.000000	0.000000	0.000000	0.000000	0.000000	1
113.283900	15.642117	0.000000	-0.008720	0.011029	0.000000	0.014060	0.910413	0.000000	0.000000	0.000000	0.000000	0.000000	1
116.392892	15.642117	0.000000	-0.000976	0.010878	0.000000	0.010922	-0.012000	0.000000	0.000000	0.000000	0.000000	0.000000	1
119.501884	15.642117	0.000000	0.002691	0.009745	0.000000	0.010110	-0.139446	0.000000	0.000000	0.000000	0.000000	0.000000	1
122.610876	15.642117	0.000000	-0.005588	0.008830	0.000000	0.010450	1.036252	0.000000	0.000000	0.000000	0.000000	0.000000	1