TITLE = "PIV Result  1185 "
VARIABLES = "X (mm)""Y (mm)""Z (mm)""U (m/s)""V (m/s)""W (m/s)""Speed (m/s)""Vorticity""U-std""V-std""W-std""Speed-std""Vorticity-std""Flag"
ZONE T="ZONE 1185 "
I= 51 , J= 16 , K= 1 , F=POINT
DT=(DOUBLE DOUBLE DOUBLE DOUBLE DOUBLE DOUBLE DOUBLE DOUBLE DOUBLE DOUBLE DOUBLE DOUBLE DOUBLE DOUBLE)
4.469176	3.206148	0.000000	0.006022	0.009033	0.000000	0.010856	-1.117754	0.000000	0.000000	0.000000	0.000000	0.000000	1
7.578168	3.206148	0.000000	0.002850	0.005284	0.000000	0.006003	-0.898745	0.000000	0.000000	0.000000	0.000000	0.000000	1
10.687160	3.206148	0.000000	0.002979	0.007961	0.000000	0.008501	-0.371043	0.000000	0.000000	0.000000	0.000000	0.000000	1
13.796152	3.206148	0.000000	0.003168	0.009140	0.000000	0.009674	0.282044	0.000000	0.000000	0.000000	0.000000	0.000000	1
16.905145	3.206148	0.000000	0.006134	0.007452	0.000000	0.009651	1.475760	0.000000	0.000000	0.000000	0.000000	0.000000	1
20.014137	3.206148	0.000000	0.000345	0.009021	0.000000	0.009027	2.853623	0.000000	0.000000	0.000000	0.000000	0.000000	1
23.123129	3.206148	0.000000	0.002595	0.019165	0.000000	0.019340	2.720327	0.000000	0.000000	0.000000	0.000000	0.000000	1
26.232121	3.206148	0.000000	0.006883	0.023362	0.000000	0.024355	1.701781	0.000000	0.000000	0.000000	0.000000	0.000000	1
29.341113	3.206148	0.000000	0.007450	0.021102	0.000000	0.022379	0.706732	0.000000	0.000000	0.000000	0.000000	0.000000	1
32.450105	3.206148	0.000000	0.005447	0.009762	0.000000	0.011179	-1.300214	0.000000	0.000000	0.000000	0.000000	0.000000	1
35.559097	3.206148	0.000000	0.003035	0.000443	0.000000	0.003068	-1.861899	0.000000	0.000000	0.000000	0.000000	0.000000	1
38.668089	3.206148	0.000000	0.002089	0.000098	0.000000	0.002091	-1.547864	0.000000	0.000000	0.000000	0.000000	0.000000	1
41.777081	3.206148	0.000000	-0.001052	0.000880	0.000000	0.001371	-2.224584	0.000000	0.000000	0.000000	0.000000	0.000000	1
44.886073	3.206148	0.000000	-0.001205	0.001025	0.000000	0.001582	-2.764334	0.000000	0.000000	0.000000	0.000000	0.000000	1
47.995066	3.206148	0.000000	0.000368	0.000904	0.000000	0.000976	-4.164485	0.000000	0.000000	0.000000	0.000000	0.000000	1
51.104058	3.206148	0.000000	0.000170	0.000250	0.000000	0.000302	-5.176090	0.000000	0.000000	0.000000	0.000000	0.000000	1
54.213050	3.206148	0.000000	-0.004981	-0.001690	0.000000	0.005260	-4.991769	0.000000	0.000000	0.000000	0.000000	0.000000	1
57.322042	3.206148	0.000000	0.007166	0.002122	0.000000	0.007474	-3.093854	0.000000	0.000000	0.000000	0.000000	0.000000	1
60.431034	3.206148	0.000000	0.017486	0.004977	0.000000	0.018181	-0.282617	0.000000	0.000000	0.000000	0.000000	0.000000	1
63.540026	3.206148	0.000000	0.004417	0.000485	0.000000	0.004443	-1.213360	0.000000	0.000000	0.000000	0.000000	0.000000	1
66.649018	3.206148	0.000000	0.000340	-0.000639	0.000000	0.000724	5.098680	0.000000	0.000000	0.000000	0.000000	0.000000	1
69.758010	3.206148	0.000000	0.000668	0.000375	0.000000	0.000766	15.350055	0.000000	0.000000	0.000000	0.000000	0.000000	1
72.867002	3.206148	0.000000	0.021097	0.018885	0.000000	0.028315	6.136476	0.000000	0.000000	0.000000	0.000000	0.000000	1
75.975994	3.206148	0.000000	-0.008037	-0.008938	0.000000	0.012020	-2.971117	0.000000	0.000000	0.000000	0.000000	0.000000	1
79.084987	3.206148	0.000000	-0.009536	-0.008092	0.000000	0.012507	4.202533	0.000000	0.000000	0.000000	0.000000	0.000000	1
82.193979	3.206148	0.000000	0.086392	0.019061	0.000000	0.088470	24.943830	0.000000	0.000000	0.000000	0.000000	0.000000	2
85.302971	3.206148	0.000000	0.210553	0.313142	0.000000	0.377347	79.619149	0.000000	0.000000	0.000000	0.000000	0.000000	2
88.411963	3.206148	0.000000	0.464821	0.531936	0.000000	0.706410	63.478866	0.000000	0.000000	0.000000	0.000000	0.000000	2
91.520955	3.206148	0.000000	0.435297	0.481874	0.000000	0.649374	-44.871309	0.000000	0.000000	0.000000	0.000000	0.000000	1
94.629947	3.206148	0.000000	0.236480	0.264116	0.000000	0.354513	-74.973353	0.000000	0.000000	0.000000	0.000000	0.000000	1
97.738939	3.206148	0.000000	0.123937	0.147911	0.000000	0.192971	-62.632810	0.000000	0.000000	0.000000	0.000000	0.000000	2
100.847931	3.206148	0.000000	0.007458	0.003163	0.000000	0.008101	-34.178864	0.000000	0.000000	0.000000	0.000000	0.000000	1
103.956923	3.206148	0.000000	0.000584	0.000492	0.000000	0.000764	3.939006	0.000000	0.000000	0.000000	0.000000	0.000000	1
107.065915	3.206148	0.000000	-0.000670	-0.000578	0.000000	0.000885	3.525011	0.000000	0.000000	0.000000	0.000000	0.000000	1
110.174908	3.206148	0.000000	-0.000667	0.000848	0.000000	0.001079	4.183799	0.000000	0.000000	0.000000	0.000000	0.000000	1
113.283900	3.206148	0.000000	0.000202	0.000782	0.000000	0.000807	4.444401	0.000000	0.000000	0.000000	0.000000	0.000000	1
116.392892	3.206148	0.000000	0.000675	-0.000130	0.000000	0.000687	2.993581	0.000000	0.000000	0.000000	0.000000	0.000000	1
119.501884	3.206148	0.000000	-0.003201	-0.000387	0.000000	0.003224	0.255840	0.000000	0.000000	0.000000	0.000000	0.000000	1
122.610876	3.206148	0.000000	0.000124	-0.000157	0.000000	0.000200	0.117312	0.000000	0.000000	0.000000	0.000000	0.000000	1
125.719868	3.206148	0.000000	0.000665	-0.000132	0.000000	0.000678	1.133481	0.000000	0.000000	0.000000	0.000000	0.000000	1
128.828860	3.206148	0.000000	-0.001067	0.000012	0.000000	0.001067	1.219708	0.000000	0.000000	0.000000	0.000000	0.000000	1
131.937852	3.206148	0.000000	-0.000555	0.000634	0.000000	0.000843	0.945172	0.000000	0.000000	0.000000	0.000000	0.000000	1
135.046844	3.206148	0.000000	0.000364	0.002881	0.000000	0.002904	0.238235	0.000000	0.000000	0.000000	0.000000	0.000000	1
138.155836	3.206148	0.000000	-0.005487	0.006629	0.000000	0.008605	0.249439	0.000000	0.000000	0.000000	0.000000	0.000000	1
141.264829	3.206148	0.000000	-0.005562	0.007036	0.000000	0.008969	0.993401	0.000000	0.000000	0.000000	0.000000	0.000000	1
144.373821	3.206148	0.000000	-0.003092	0.008429	0.000000	0.008978	1.109642	0.000000	0.000000	0.000000	0.000000	0.000000	1
147.482813	3.206148	0.000000	-0.004526	0.006899	0.000000	0.008251	0.687516	0.000000	0.000000	0.000000	0.000000	0.000000	1
150.591805	3.206148	0.000000	-0.004439	0.007191	0.000000	0.008450	-0.370285	0.000000	0.000000	0.000000	0.000000	0.000000	1
153.700797	3.206148	0.000000	-0.003349	0.005816	0.000000	0.006711	-1.054983	0.000000	0.000000	0.000000	0.000000	0.000000	1
156.809789	3.206148	0.000000	-0.005744	0.004716	0.000000	0.007432	-0.753144	0.000000	0.000000	0.000000	0.000000	0.000000	1
159.918781	3.206148	0.000000	-0.011124	0.006176	0.000000	0.012723	-0.571749	0.000000	0.000000	0.000000	0.000000	0.000000	1
4.469176	6.315140	0.000000	0.003845	0.012218	0.000000	0.012809	-0.654239	0.000000	0.000000	0.000000	0.000000	0.000000	1
7.578168	6.315140	0.000000	0.007021	0.011010	0.000000	0.013058	-0.634012	0.000000	0.000000	0.000000	0.000000	0.000000	1
10.687160	6.315140	0.000000	0.003058	0.008355	0.000000	0.008898	-0.273604	0.000000	0.000000	0.000000	0.000000	0.000000	1
13.796152	6.315140	0.000000	0.003794	0.007494	0.000000	0.008400	-0.223057	0.000000	0.000000	0.000000	0.000000	0.000000	1
16.905145	6.315140	0.000000	0.000404	0.007975	0.000000	0.007985	-0.103704	0.000000	0.000000	0.000000	0.000000	0.000000	1
20.014137	6.315140	0.000000	-0.005385	0.009403	0.000000	0.010835	1.108396	0.000000	0.000000	0.000000	0.000000	0.000000	1
23.123129	6.315140	0.000000	-0.003267	0.008697	0.000000	0.009290	1.134842	0.000000	0.000000	0.000000	0.000000	0.000000	1
26.232121	6.315140	0.000000	0.000695	0.005250	0.000000	0.005296	-0.060848	0.000000	0.000000	0.000000	0.000000	0.000000	1
29.341113	6.315140	0.000000	0.001634	0.003868	0.000000	0.004199	0.502029	0.000000	0.000000	0.000000	0.000000	0.000000	1
32.450105	6.315140	0.000000	0.006205	0.010575	0.000000	0.012261	-0.136876	0.000000	0.000000	0.000000	0.000000	0.000000	1
35.559097	6.315140	0.000000	0.003789	0.004810	0.000000	0.006123	-1.658542	0.000000	0.000000	0.000000	0.000000	0.000000	1
38.668089	6.315140	0.000000	0.003022	0.000281	0.000000	0.003035	-1.246914	0.000000	0.000000	0.000000	0.000000	0.000000	1
41.777081	6.315140	0.000000	0.012753	0.001547	0.000000	0.012846	-0.684555	0.000000	0.000000	0.000000	0.000000	0.000000	1
44.886073	6.315140	0.000000	0.005289	0.006725	0.000000	0.008556	-0.354078	0.000000	0.000000	0.000000	0.000000	0.000000	1
47.995066	6.315140	0.000000	0.016735	0.010307	0.000000	0.019655	-1.898700	0.000000	0.000000	0.000000	0.000000	0.000000	1
51.104058	6.315140	0.000000	0.015911	0.010683	0.000000	0.019165	-4.084176	0.000000	0.000000	0.000000	0.000000	0.000000	1
54.213050	6.315140	0.000000	0.009352	0.010715	0.000000	0.014222	-4.670262	0.000000	0.000000	0.000000	0.000000	0.000000	1
57.322042	6.315140	0.000000	0.013508	-0.002518	0.000000	0.013741	-2.016978	0.000000	0.000000	0.000000	0.000000	0.000000	1
60.431034	6.315140	0.000000	0.016171	-0.008725	0.000000	0.018375	2.192703	0.000000	0.000000	0.000000	0.000000	0.000000	1
63.540026	6.315140	0.000000	0.013461	0.008361	0.000000	0.015846	1.119460	0.000000	0.000000	0.000000	0.000000	0.000000	1
66.649018	6.315140	0.000000	-0.009315	-0.011081	0.000000	0.014477	5.922323	0.000000	0.000000	0.000000	0.000000	0.000000	1
69.758010	6.315140	0.000000	-0.028420	0.032522	0.000000	0.043190	11.753081	0.000000	0.000000	0.000000	0.000000	0.000000	1
72.867002	6.315140	0.000000	-0.027526	0.043833	0.000000	0.051759	0.154660	0.000000	0.000000	0.000000	0.000000	0.000000	1
75.975994	6.315140	0.000000	-0.004484	-0.004633	0.000000	0.006448	-5.290437	0.000000	0.000000	0.000000	0.000000	0.000000	1
79.084987	6.315140	0.000000	-0.008043	-0.006163	0.000000	0.010132	3.372426	0.000000	0.000000	0.000000	0.000000	0.000000	1
82.193979	6.315140	0.000000	0.062608	0.002387	0.000000	0.062654	22.704020	0.000000	0.000000	0.000000	0.000000	0.000000	2
85.302971	6.315140	0.000000	0.317488	0.043667	0.000000	0.320477	87.956444	0.000000	0.000000	0.000000	0.000000	0.000000	2
88.411963	6.315140	0.000000	0.377077	0.581998	0.000000	0.693476	101.977763	0.000000	0.000000	0.000000	0.000000	0.000000	2
91.520955	6.315140	0.000000	0.494345	0.654852	0.000000	0.820492	-8.879442	0.000000	0.000000	0.000000	0.000000	0.000000	1
94.629947	6.315140	0.000000	0.278007	0.363677	0.000000	0.457765	-92.869257	0.000000	0.000000	0.000000	0.000000	0.000000	1
97.738939	6.315140	0.000000	0.203349	0.277959	0.000000	0.344401	-89.446656	0.000000	0.000000	0.000000	0.000000	0.000000	1
100.847931	6.315140	0.000000	-0.006914	0.031705	0.000000	0.032451	-38.254771	0.000000	0.000000	0.000000	0.000000	0.000000	2
103.956923	6.315140	0.000000	-0.029385	0.021028	0.000000	0.036134	-2.296836	0.000000	0.000000	0.000000	0.000000	0.000000	1
107.065915	6.315140	0.000000	-0.014491	-0.003699	0.000000	0.014955	-1.445999	0.000000	0.000000	0.000000	0.000000	0.000000	1
110.174908	6.315140	0.000000	-0.013371	-0.005805	0.000000	0.014577	2.060091	0.000000	0.000000	0.000000	0.000000	0.000000	1
113.283900	6.315140	0.000000	-0.013240	-0.005699	0.000000	0.014414	1.993711	0.000000	0.000000	0.000000	0.000000	0.000000	1
116.392892	6.315140	0.000000	-0.009132	0.001048	0.000000	0.009192	1.371197	0.000000	0.000000	0.000000	0.000000	0.000000	1
119.501884	6.315140	0.000000	0.000805	0.003649	0.000000	0.003737	0.281470	0.000000	0.000000	0.000000	0.000000	0.000000	1
122.610876	6.315140	0.000000	-0.002350	-0.000011	0.000000	0.002350	0.036244	0.000000	0.000000	0.000000	0.000000	0.000000	1
125.719868	6.315140	0.000000	-0.004756	-0.001511	0.000000	0.004991	0.640746	0.000000	0.000000	0.000000	0.000000	0.000000	1
128.828860	6.315140	0.000000	-0.000248	0.001417	0.000000	0.001439	2.038222	0.000000	0.000000	0.000000	0.000000	0.000000	1
131.937852	6.315140	0.000000	-0.000475	0.009188	0.000000	0.009200	2.251235	0.000000	0.000000	0.000000	0.000000	0.000000	1
135.046844	6.315140	0.000000	-0.001257	0.009660	0.000000	0.009742	1.038567	0.000000	0.000000	0.000000	0.000000	0.000000	1
138.155836	6.315140	0.000000	-0.002457	0.006023	0.000000	0.006505	0.504216	0.000000	0.000000	0.000000	0.000000	0.000000	1
141.264829	6.315140	0.000000	-0.007642	0.010967	0.000000	0.013367	0.115619	0.000000	0.000000	0.000000	0.000000	0.000000	1
144.373821	6.315140	0.000000	-0.007324	0.011215	0.000000	0.013395	0.187213	0.000000	0.000000	0.000000	0.000000	0.000000	1
147.482813	6.315140	0.000000	-0.005989	0.012895	0.000000	0.014218	-0.097789	0.000000	0.000000	0.000000	0.000000	0.000000	1
150.591805	6.315140	0.000000	-0.005681	0.012603	0.000000	0.013824	-0.830901	0.000000	0.000000	0.000000	0.000000	0.000000	1
153.700797	6.315140	0.000000	-0.002724	0.006052	0.000000	0.006637	-0.070624	0.000000	0.000000	0.000000	0.000000	0.000000	1
156.809789	6.315140	0.000000	-0.003745	0.003965	0.000000	0.005454	0.885553	0.000000	0.000000	0.000000	0.000000	0.000000	1
159.918781	6.315140	0.000000	-0.008225	0.003847	0.000000	0.009080	0.942058	0.000000	0.000000	0.000000	0.000000	0.000000	1
4.469176	9.424132	0.000000	0.003223	0.012414	0.000000	0.012825	0.430393	0.000000	0.000000	0.000000	0.000000	0.000000	1
7.578168	9.424132	0.000000	0.004924	0.009717	0.000000	0.010893	0.105342	0.000000	0.000000	0.000000	0.000000	0.000000	1
10.687160	9.424132	0.000000	0.000947	0.004757	0.000000	0.004850	0.414218	0.000000	0.000000	0.000000	0.000000	0.000000	1
13.796152	9.424132	0.000000	0.008653	0.009582	0.000000	0.012911	0.265850	0.000000	0.000000	0.000000	0.000000	0.000000	1
16.905145	9.424132	0.000000	0.007649	0.010934	0.000000	0.013344	-1.602408	0.000000	0.000000	0.000000	0.000000	0.000000	1
20.014137	9.424132	0.000000	-0.002409	0.009066	0.000000	0.009381	-2.420926	0.000000	0.000000	0.000000	0.000000	0.000000	1
23.123129	9.424132	0.000000	0.000744	0.019500	0.000000	0.019514	-1.541406	0.000000	0.000000	0.000000	0.000000	0.000000	1
26.232121	9.424132	0.000000	0.000863	0.018781	0.000000	0.018801	-2.132479	0.000000	0.000000	0.000000	0.000000	0.000000	1
29.341113	9.424132	0.000000	-0.000436	0.003930	0.000000	0.003954	-1.839943	0.000000	0.000000	0.000000	0.000000	0.000000	1
32.450105	9.424132	0.000000	0.001910	0.008887	0.000000	0.009089	-0.443303	0.000000	0.000000	0.000000	0.000000	0.000000	1
35.559097	9.424132	0.000000	0.005585	0.006890	0.000000	0.008869	-0.755606	0.000000	0.000000	0.000000	0.000000	0.000000	1
38.668089	9.424132	0.000000	0.003919	0.001280	0.000000	0.004123	1.272784	0.000000	0.000000	0.000000	0.000000	0.000000	1
41.777081	9.424132	0.000000	0.013079	0.002306	0.000000	0.013281	2.837016	0.000000	0.000000	0.000000	0.000000	0.000000	1
44.886073	9.424132	0.000000	0.005030	0.006765	0.000000	0.008431	5.182954	0.000000	0.000000	0.000000	0.000000	0.000000	1
47.995066	9.424132	0.000000	0.022372	0.024562	0.000000	0.033223	5.014239	0.000000	0.000000	0.000000	0.000000	0.000000	1
51.104058	9.424132	0.000000	0.023339	0.025814	0.000000	0.034800	0.303332	0.000000	0.000000	0.000000	0.000000	0.000000	1
54.213050	9.424132	0.000000	0.025036	0.023118	0.000000	0.034076	-0.601909	0.000000	0.000000	0.000000	0.000000	0.000000	1
57.322042	9.424132	0.000000	0.004352	0.014573	0.000000	0.015209	0.561145	0.000000	0.000000	0.000000	0.000000	0.000000	1
60.431034	9.424132	0.000000	0.000871	0.012938	0.000000	0.012967	3.326994	0.000000	0.000000	0.000000	0.000000	0.000000	1
63.540026	9.424132	0.000000	-0.003249	0.005279	0.000000	0.006199	3.816022	0.000000	0.000000	0.000000	0.000000	0.000000	1
66.649018	9.424132	0.000000	-0.008839	0.009982	0.000000	0.013334	4.365050	0.000000	0.000000	0.000000	0.000000	0.000000	1
69.758010	9.424132	0.000000	-0.033440	0.044233	0.000000	0.055451	0.458196	0.000000	0.000000	0.000000	0.000000	0.000000	1
72.867002	9.424132	0.000000	-0.030624	0.043835	0.000000	0.053473	-9.350845	0.000000	0.000000	0.000000	0.000000	0.000000	1
75.975994	9.424132	0.000000	0.001924	0.004113	0.000000	0.004540	-4.967816	0.000000	0.000000	0.000000	0.000000	0.000000	1
79.084987	9.424132	0.000000	-0.007489	0.009467	0.000000	0.012071	4.383049	0.000000	0.000000	0.000000	0.000000	0.000000	1
82.193979	9.424132	0.000000	0.030241	0.003857	0.000000	0.030486	18.318066	0.000000	0.000000	0.000000	0.000000	0.000000	1
85.302971	9.424132	0.000000	0.223963	0.056426	0.000000	0.230962	81.594902	0.000000	0.000000	0.000000	0.000000	0.000000	2
88.411963	9.424132	0.000000	0.319548	0.344809	0.000000	0.470111	136.931270	0.000000	0.000000	0.000000	0.000000	0.000000	2
91.520955	9.424132	0.000000	0.376387	0.865666	0.000000	0.943951	73.151083	0.000000	0.000000	0.000000	0.000000	0.000000	1
94.629947	9.424132	0.000000	0.555175	0.884021	0.000000	1.043893	-67.031054	0.000000	0.000000	0.000000	0.000000	0.000000	1
97.738939	9.424132	0.000000	0.214706	0.312818	0.000000	0.379413	-114.558522	0.000000	0.000000	0.000000	0.000000	0.000000	2
100.847931	9.424132	0.000000	-0.001547	0.075428	0.000000	0.075444	-64.303221	0.000000	0.000000	0.000000	0.000000	0.000000	2
103.956923	9.424132	0.000000	-0.028784	0.066018	0.000000	0.072020	-31.976054	0.000000	0.000000	0.000000	0.000000	0.000000	1
107.065915	9.424132	0.000000	-0.018319	0.007463	0.000000	0.019780	-15.530990	0.000000	0.000000	0.000000	0.000000	0.000000	1
110.174908	9.424132	0.000000	-0.020548	-0.001182	0.000000	0.020582	-4.288615	0.000000	0.000000	0.000000	0.000000	0.000000	1
113.283900	9.424132	0.000000	-0.006367	-0.002637	0.000000	0.006891	-1.560042	0.000000	0.000000	0.000000	0.000000	0.000000	1
116.392892	9.424132	0.000000	-0.003986	-0.002003	0.000000	0.004461	0.255231	0.000000	0.000000	0.000000	0.000000	0.000000	1
119.501884	9.424132	0.000000	-0.003019	-0.001769	0.000000	0.003499	0.591889	0.000000	0.000000	0.000000	0.000000	0.000000	1
122.610876	9.424132	0.000000	-0.002110	0.000612	0.000000	0.002197	0.901108	0.000000	0.000000	0.000000	0.000000	0.000000	1
125.719868	9.424132	0.000000	-0.002168	0.002077	0.000000	0.003002	1.768259	0.000000	0.000000	0.000000	0.000000	0.000000	1
128.828860	9.424132	0.000000	-0.001110	0.005578	0.000000	0.005687	2.743387	0.000000	0.000000	0.000000	0.000000	0.000000	1
131.937852	9.424132	0.000000	-0.011506	0.016736	0.000000	0.020310	1.573937	0.000000	0.000000	0.000000	0.000000	0.000000	1
135.046844	9.424132	0.000000	-0.009616	0.010289	0.000000	0.014083	0.366069	0.000000	0.000000	0.000000	0.000000	0.000000	1
138.155836	9.424132	0.000000	-0.008408	0.009067	0.000000	0.012366	-0.174138	0.000000	0.000000	0.000000	0.000000	0.000000	1
141.264829	9.424132	0.000000	-0.002234	0.003566	0.000000	0.004208	-0.782015	0.000000	0.000000	0.000000	0.000000	0.000000	1
144.373821	9.424132	0.000000	-0.003105	0.003482	0.000000	0.004665	0.338736	0.000000	0.000000	0.000000	0.000000	0.000000	1
147.482813	9.424132	0.000000	-0.003852	0.008478	0.000000	0.009312	0.286231	0.000000	0.000000	0.000000	0.000000	0.000000	1
150.591805	9.424132	0.000000	-0.001106	0.004178	0.000000	0.004322	-0.194482	0.000000	0.000000	0.000000	0.000000	0.000000	1
153.700797	9.424132	0.000000	-0.004853	0.008417	0.000000	0.009716	1.257091	0.000000	0.000000	0.000000	0.000000	0.000000	1
156.809789	9.424132	0.000000	-0.013535	0.014707	0.000000	0.019987	1.703690	0.000000	0.000000	0.000000	0.000000	0.000000	1
159.918781	9.424132	0.000000	-0.013753	0.014776	0.000000	0.020186	1.238949	0.000000	0.000000	0.000000	0.000000	0.000000	1
4.469176	12.533124	0.000000	-0.000077	0.004464	0.000000	0.004465	0.506044	0.000000	0.000000	0.000000	0.000000	0.000000	1
7.578168	12.533124	0.000000	0.000525	0.006000	0.000000	0.006023	0.356202	0.000000	0.000000	0.000000	0.000000	0.000000	1
10.687160	12.533124	0.000000	-0.000412	0.005877	0.000000	0.005891	0.877543	0.000000	0.000000	0.000000	0.000000	0.000000	1
13.796152	12.533124	0.000000	0.006956	0.009815	0.000000	0.012029	2.106998	0.000000	0.000000	0.000000	0.000000	0.000000	1
16.905145	12.533124	0.000000	0.015319	0.018284	0.000000	0.023853	0.884790	0.000000	0.000000	0.000000	0.000000	0.000000	1
20.014137	12.533124	0.000000	0.023274	0.030733	0.000000	0.038551	-2.311043	0.000000	0.000000	0.000000	0.000000	0.000000	1
23.123129	12.533124	0.000000	0.001711	0.017426	0.000000	0.017510	-1.518006	0.000000	0.000000	0.000000	0.000000	0.000000	1
26.232121	12.533124	0.000000	0.001841	0.016878	0.000000	0.016978	-0.272498	0.000000	0.000000	0.000000	0.000000	0.000000	1
29.341113	12.533124	0.000000	0.016087	0.022079	0.000000	0.027318	-2.213270	0.000000	0.000000	0.000000	0.000000	0.000000	1
32.450105	12.533124	0.000000	0.003046	0.012472	0.000000	0.012839	-2.057842	0.000000	0.000000	0.000000	0.000000	0.000000	1
35.559097	12.533124	0.000000	-0.001165	0.007374	0.000000	0.007465	-0.661663	0.000000	0.000000	0.000000	0.000000	0.000000	1
38.668089	12.533124	0.000000	0.006251	0.009350	0.000000	0.011247	5.795592	0.000000	0.000000	0.000000	0.000000	0.000000	1
41.777081	12.533124	0.000000	-0.003857	0.036356	0.000000	0.036560	9.358005	0.000000	0.000000	0.000000	0.000000	0.000000	1
44.886073	12.533124	0.000000	-0.001484	0.025734	0.000000	0.025776	11.475530	0.000000	0.000000	0.000000	0.000000	0.000000	1
47.995066	12.533124	0.000000	-0.000502	0.064601	0.000000	0.064603	13.356946	0.000000	0.000000	0.000000	0.000000	0.000000	1
51.104058	12.533124	0.000000	0.025032	0.076265	0.000000	0.080268	6.627615	0.000000	0.000000	0.000000	0.000000	0.000000	1
54.213050	12.533124	0.000000	-0.013394	0.052884	0.000000	0.054554	2.460272	0.000000	0.000000	0.000000	0.000000	0.000000	1
57.322042	12.533124	0.000000	-0.013718	0.033379	0.000000	0.036088	-0.261186	0.000000	0.000000	0.000000	0.000000	0.000000	1
60.431034	12.533124	0.000000	-0.005401	0.007869	0.000000	0.009545	0.549699	0.000000	0.000000	0.000000	0.000000	0.000000	1
63.540026	12.533124	0.000000	-0.029742	0.010263	0.000000	0.031463	3.518492	0.000000	0.000000	0.000000	0.000000	0.000000	2
66.649018	12.533124	0.000000	-0.006998	0.005389	0.000000	0.008832	3.392483	0.000000	0.000000	0.000000	0.000000	0.000000	1
69.758010	12.533124	0.000000	0.011074	0.017690	0.000000	0.020870	-1.034756	0.000000	0.000000	0.000000	0.000000	0.000000	1
72.867002	12.533124	0.000000	0.002903	0.005900	0.000000	0.006576	-2.074532	0.000000	0.000000	0.000000	0.000000	0.000000	1
75.975994	12.533124	0.000000	-0.008184	-0.000837	0.000000	0.008227	5.811616	0.000000	0.000000	0.000000	0.000000	0.000000	1
79.084987	12.533124	0.000000	-0.011981	0.020164	0.000000	0.023455	7.477475	0.000000	0.000000	0.000000	0.000000	0.000000	1
82.193979	12.533124	0.000000	0.028473	0.055957	0.000000	0.062785	15.315818	0.000000	0.000000	0.000000	0.000000	0.000000	2
85.302971	12.533124	0.000000	0.168288	0.110615	0.000000	0.201387	59.270108	0.000000	0.000000	0.000000	0.000000	0.000000	2
88.411963	12.533124	0.000000	0.227556	0.341814	0.000000	0.410632	113.754436	0.000000	0.000000	0.000000	0.000000	0.000000	1
91.520955	12.533124	0.000000	0.376206	0.720322	0.000000	0.812647	103.577491	0.000000	0.000000	0.000000	0.000000	0.000000	1
94.629947	12.533124	0.000000	0.338993	0.976311	0.000000	1.033489	-8.431555	0.000000	0.000000	0.000000	0.000000	0.000000	2
97.738939	12.533124	0.000000	0.198340	0.534540	0.000000	0.570150	-87.768024	0.000000	0.000000	0.000000	0.000000	0.000000	2
100.847931	12.533124	0.000000	0.162764	0.296817	0.000000	0.338515	-90.483587	0.000000	0.000000	0.000000	0.000000	0.000000	1
103.956923	12.533124	0.000000	0.054497	0.103950	0.000000	0.117369	-80.832600	0.000000	0.000000	0.000000	0.000000	0.000000	2
107.065915	12.533124	0.000000	-0.007997	0.016780	0.000000	0.018588	-48.820423	0.000000	0.000000	0.000000	0.000000	0.000000	1
110.174908	12.533124	0.000000	0.012006	0.001143	0.000000	0.012060	-20.172786	0.000000	0.000000	0.000000	0.000000	0.000000	1
113.283900	12.533124	0.000000	-0.007602	-0.004800	0.000000	0.008990	-3.793225	0.000000	0.000000	0.000000	0.000000	0.000000	1
116.392892	12.533124	0.000000	-0.004957	-0.002040	0.000000	0.005360	1.201060	0.000000	0.000000	0.000000	0.000000	0.000000	1
119.501884	12.533124	0.000000	-0.004937	-0.001291	0.000000	0.005103	0.704079	0.000000	0.000000	0.000000	0.000000	0.000000	1
122.610876	12.533124	0.000000	-0.002369	0.001181	0.000000	0.002647	2.111327	0.000000	0.000000	0.000000	0.000000	0.000000	1
125.719868	12.533124	0.000000	-0.009373	0.008192	0.000000	0.012448	3.023220	0.000000	0.000000	0.000000	0.000000	0.000000	1
128.828860	12.533124	0.000000	-0.013144	0.011652	0.000000	0.017565	1.102607	0.000000	0.000000	0.000000	0.000000	0.000000	1
131.937852	12.533124	0.000000	-0.002873	0.003601	0.000000	0.004607	-0.938154	0.000000	0.000000	0.000000	0.000000	0.000000	1
135.046844	12.533124	0.000000	-0.007882	0.008817	0.000000	0.011827	-0.987727	0.000000	0.000000	0.000000	0.000000	0.000000	1
138.155836	12.533124	0.000000	-0.008588	0.009429	0.000000	0.012754	-0.972432	0.000000	0.000000	0.000000	0.000000	0.000000	1
141.264829	12.533124	0.000000	-0.002101	0.003278	0.000000	0.003894	0.072085	0.000000	0.000000	0.000000	0.000000	0.000000	1
144.373821	12.533124	0.000000	-0.004055	0.004179	0.000000	0.005823	1.767743	0.000000	0.000000	0.000000	0.000000	0.000000	1
147.482813	12.533124	0.000000	-0.008414	0.009605	0.000000	0.012769	1.139674	0.000000	0.000000	0.000000	0.000000	0.000000	1
150.591805	12.533124	0.000000	-0.005374	0.007241	0.000000	0.009017	0.223190	0.000000	0.000000	0.000000	0.000000	0.000000	1
153.700797	12.533124	0.000000	-0.003711	0.008933	0.000000	0.009673	0.454966	0.000000	0.000000	0.000000	0.000000	0.000000	1
156.809789	12.533124	0.000000	-0.013515	0.014650	0.000000	0.019932	-0.481191	0.000000	0.000000	0.000000	0.000000	0.000000	1
159.918781	12.533124	0.000000	-0.013763	0.014728	0.000000	0.020158	-1.376615	0.000000	0.000000	0.000000	0.000000	0.000000	1
4.469176	15.642117	0.000000	0.001063	0.002829	0.000000	0.003023	-2.448293	0.000000	0.000000	0.000000	0.000000	0.000000	1
7.578168	15.642117	0.000000	0.001548	0.003211	0.000000	0.003565	-2.015423	0.000000	0.000000	0.000000	0.000000	0.000000	1
10.687160	15.642117	0.000000	0.001149	0.007811	0.000000	0.007896	-0.999346	0.000000	0.000000	0.000000	0.000000	0.000000	1
13.796152	15.642117	0.000000	0.001734	0.007655	0.000000	0.007849	2.072357	0.000000	0.000000	0.000000	0.000000	0.000000	1
16.905145	15.642117	0.000000	0.020012	0.027953	0.000000	0.034378	3.981824	0.000000	0.000000	0.000000	0.000000	0.000000	1
20.014137	15.642117	0.000000	0.018958	0.027514	0.000000	0.033413	1.160230	0.000000	0.000000	0.000000	0.000000	0.000000	1
23.123129	15.642117	0.000000	-0.004934	0.013042	0.000000	0.013944	-0.507633	0.000000	0.000000	0.000000	0.000000	0.000000	1
26.232121	15.642117	0.000000	-0.003400	0.013503	0.000000	0.013924	0.883469	0.000000	0.000000	0.000000	0.000000	0.000000	1
29.341113	15.642117	0.000000	0.017761	0.016523	0.000000	0.024258	0.376920	0.000000	0.000000	0.000000	0.000000	0.000000	1
32.450105	15.642117	0.000000	0.003613	0.010995	0.000000	0.011574	-1.142535	0.000000	0.000000	0.000000	0.000000	0.000000	1
35.559097	15.642117	0.000000	0.000403	0.008212	0.000000	0.008222	-0.238617	0.000000	0.000000	0.000000	0.000000	0.000000	1
38.668089	15.642117	0.000000	0.005140	0.000950	0.000000	0.005227	10.635266	0.000000	0.000000	0.000000	0.000000	0.000000	1
41.777081	15.642117	0.000000	-0.033154	0.050006	0.000000	0.059998	17.458560	0.000000	0.000000	0.000000	0.000000	0.000000	2
44.886073	15.642117	0.000000	-0.037397	0.061777	0.000000	0.072214	12.093093	0.000000	0.000000	0.000000	0.000000	0.000000	2
47.995066	15.642117	0.000000	-0.041868	0.061353	0.000000	0.074277	8.112809	0.000000	0.000000	0.000000	0.000000	0.000000	1
51.104058	15.642117	0.000000	-0.017896	0.061738	0.000000	0.064280	6.266820	0.000000	0.000000	0.000000	0.000000	0.000000	1
54.213050	15.642117	0.000000	-0.016523	0.062804	0.000000	0.064941	4.225845	0.000000	0.000000	0.000000	0.000000	0.000000	1
57.322042	15.642117	0.000000	-0.028336	0.062901	0.000000	0.068989	-3.144409	0.000000	0.000000	0.000000	0.000000	0.000000	1
60.431034	15.642117	0.000000	-0.023287	0.025425	0.000000	0.034478	-3.533061	0.000000	0.000000	0.000000	0.000000	0.000000	1
63.540026	15.642117	0.000000	-0.028837	0.025508	0.000000	0.038500	2.451246	0.000000	0.000000	0.000000	0.000000	0.000000	1
66.649018	15.642117	0.000000	-0.027477	0.026883	0.000000	0.038441	7.338331	0.000000	0.000000	0.000000	0.000000	0.000000	1
69.758010	15.642117	0.000000	0.000747	0.027404	0.000000	0.027415	8.211478	0.000000	0.000000	0.000000	0.000000	0.000000	1
72.867002	15.642117	0.000000	-0.030583	0.016049	0.000000	0.034538	9.482409	0.000000	0.000000	0.000000	0.000000	0.000000	1
75.975994	15.642117	0.000000	-0.030906	0.054420	0.000000	0.062583	14.402639	0.000000	0.000000	0.000000	0.000000	0.000000	2
79.084987	15.642117	0.000000	-0.017024	0.091283	0.000000	0.092856	9.845285	0.000000	0.000000	0.000000	0.000000	0.000000	2
82.193979	15.642117	0.000000	0.047653	0.092578	0.000000	0.104123	15.951216	0.000000	0.000000	0.000000	0.000000	0.000000	1
85.302971	15.642117	0.000000	0.116758	0.162441	0.000000	0.200049	59.628864	0.000000	0.000000	0.000000	0.000000	0.000000	2
88.411963	15.642117	0.000000	0.233543	0.371075	0.000000	0.438451	100.913412	0.000000	0.000000	0.000000	0.000000	0.000000	1
91.520955	15.642117	0.000000	0.286170	0.593655	0.000000	0.659029	83.186073	0.000000	0.000000	0.000000	0.000000	0.000000	1
94.629947	15.642117	0.000000	0.354604	0.672041	0.000000	0.759857	4.420466	0.000000	0.000000	0.000000	0.000000	0.000000	1
97.738939	15.642117	0.000000	0.210227	0.812522	0.000000	0.839278	-77.052601	0.000000	0.000000	0.000000	0.000000	0.000000	1
100.847931	15.642117	0.000000	0.170088	0.618760	0.000000	0.641711	-105.512875	0.000000	0.000000	0.000000	0.000000	0.000000	1
103.956923	15.642117	0.000000	0.266391	0.303957	0.000000	0.404171	-90.606024	0.000000	0.000000	0.000000	0.000000	0.000000	1
107.065915	15.642117	0.000000	0.129503	0.146136	0.000000	0.195261	-68.934125	0.000000	0.000000	0.000000	0.000000	0.000000	2
110.174908	15.642117	0.000000	0.042305	0.016180	0.000000	0.045294	-40.443797	0.000000	0.000000	0.000000	0.000000	0.000000	1
113.283900	15.642117	0.000000	-0.002353	-0.024798	0.000000	0.024909	-8.066815	0.000000	0.000000	0.000000	0.000000	0.000000	1
116.392892	15.642117	0.000000	-0.001842	0.002049	0.000000	0.002755	1.189053	0.000000	0.000000	0.000000	0.000000	0.000000	1
119.501884	15.642117	0.000000	-0.003788	0.004721	0.000000	0.006053	-0.535909	0.000000	0.000000	0.000000	0.000000	0.000000	1
122.610876	15.642117	0.000000	-0.005482	0.007738	0.000000	0.009483	1.056055	0.000000	0.000000	0.000000	0.000000	0.000000	1