TITLE = "PIV Result  3075 "
VARIABLES = "X (mm)""Y (mm)""Z (mm)""U (m/s)""V (m/s)""W (m/s)""Speed (m/s)""Vorticity""U-std""V-std""W-std""Speed-std""Vorticity-std""Flag"
ZONE T="ZONE 3075 "
I= 51 , J= 16 , K= 1 , F=POINT
DT=(DOUBLE DOUBLE DOUBLE DOUBLE DOUBLE DOUBLE DOUBLE DOUBLE DOUBLE DOUBLE DOUBLE DOUBLE DOUBLE DOUBLE)
4.469176	3.206148	0.000000	0.003901	0.004615	0.000000	0.006043	-0.045559	0.000000	0.000000	0.000000	0.000000	0.000000	1
7.578168	3.206148	0.000000	0.003810	0.004462	0.000000	0.005868	-0.118453	0.000000	0.000000	0.000000	0.000000	0.000000	1
10.687160	3.206148	0.000000	0.004126	0.005662	0.000000	0.007006	-0.396687	0.000000	0.000000	0.000000	0.000000	0.000000	1
13.796152	3.206148	0.000000	0.004857	0.006851	0.000000	0.008398	-0.696533	0.000000	0.000000	0.000000	0.000000	0.000000	1
16.905145	3.206148	0.000000	0.002766	0.002461	0.000000	0.003703	-0.286191	0.000000	0.000000	0.000000	0.000000	0.000000	1
20.014137	3.206148	0.000000	0.001634	0.006968	0.000000	0.007157	0.220128	0.000000	0.000000	0.000000	0.000000	0.000000	1
23.123129	3.206148	0.000000	0.001594	0.008505	0.000000	0.008653	-0.446791	0.000000	0.000000	0.000000	0.000000	0.000000	1
26.232121	3.206148	0.000000	0.001811	0.002675	0.000000	0.003230	-0.232426	0.000000	0.000000	0.000000	0.000000	0.000000	1
29.341113	3.206148	0.000000	0.003845	0.005156	0.000000	0.006432	3.320223	0.000000	0.000000	0.000000	0.000000	0.000000	1
32.450105	3.206148	0.000000	0.027721	0.024843	0.000000	0.037224	1.073024	0.000000	0.000000	0.000000	0.000000	0.000000	1
35.559097	3.206148	0.000000	0.007960	0.003651	0.000000	0.008758	-3.630177	0.000000	0.000000	0.000000	0.000000	0.000000	1
38.668089	3.206148	0.000000	0.003957	0.001176	0.000000	0.004128	-2.124116	0.000000	0.000000	0.000000	0.000000	0.000000	1
41.777081	3.206148	0.000000	0.001539	-0.000410	0.000000	0.001592	-0.728970	0.000000	0.000000	0.000000	0.000000	0.000000	1
44.886073	3.206148	0.000000	0.001213	-0.001036	0.000000	0.001595	-0.975002	0.000000	0.000000	0.000000	0.000000	0.000000	1
47.995066	3.206148	0.000000	0.000569	-0.000501	0.000000	0.000758	0.532283	0.000000	0.000000	0.000000	0.000000	0.000000	1
51.104058	3.206148	0.000000	0.002349	0.000505	0.000000	0.002402	-2.245363	0.000000	0.000000	0.000000	0.000000	0.000000	1
54.213050	3.206148	0.000000	-0.001821	0.000926	0.000000	0.002043	-0.101628	0.000000	0.000000	0.000000	0.000000	0.000000	1
57.322042	3.206148	0.000000	0.001657	0.001166	0.000000	0.002026	12.600604	0.000000	0.000000	0.000000	0.000000	0.000000	1
60.431034	3.206148	0.000000	-0.012350	-0.001358	0.000000	0.012425	17.814700	0.000000	0.000000	0.000000	0.000000	0.000000	1
63.540026	3.206148	0.000000	-0.094379	-0.005685	0.000000	0.094550	11.897825	0.000000	0.000000	0.000000	0.000000	0.000000	1
66.649018	3.206148	0.000000	-0.037863	-0.016637	0.000000	0.041357	11.548301	0.000000	0.000000	0.000000	0.000000	0.000000	1
69.758010	3.206148	0.000000	-0.006800	-0.018915	0.000000	0.020100	16.095962	0.000000	0.000000	0.000000	0.000000	0.000000	1
72.867002	3.206148	0.000000	0.000000	-0.000000	0.000000	0.000000	11.257430	0.000000	0.000000	0.000000	0.000000	0.000000	1
75.975994	3.206148	0.000000	0.047450	0.050119	0.000000	0.069018	45.844172	0.000000	0.000000	0.000000	0.000000	0.000000	2
79.084987	3.206148	0.000000	0.038827	0.200949	0.000000	0.204666	65.565601	0.000000	0.000000	0.000000	0.000000	0.000000	2
82.193979	3.206148	0.000000	-0.000060	0.302320	0.000000	0.302320	63.629038	0.000000	0.000000	0.000000	0.000000	0.000000	2
85.302971	3.206148	0.000000	-0.019784	0.552991	0.000000	0.553345	30.111646	0.000000	0.000000	0.000000	0.000000	0.000000	2
88.411963	3.206148	0.000000	-0.063723	0.583317	0.000000	0.586788	-80.981126	0.000000	0.000000	0.000000	0.000000	0.000000	2
91.520955	3.206148	0.000000	-0.068229	0.264393	0.000000	0.273055	-94.455926	0.000000	0.000000	0.000000	0.000000	0.000000	2
94.629947	3.206148	0.000000	0.003301	0.064763	0.000000	0.064847	-29.667499	0.000000	0.000000	0.000000	0.000000	0.000000	2
97.738939	3.206148	0.000000	0.021782	0.006653	0.000000	0.022775	-6.608261	0.000000	0.000000	0.000000	0.000000	0.000000	1
100.847931	3.206148	0.000000	0.002766	-0.000922	0.000000	0.002915	-0.976724	0.000000	0.000000	0.000000	0.000000	0.000000	1
103.956923	3.206148	0.000000	0.001159	-0.000257	0.000000	0.001187	-0.341466	0.000000	0.000000	0.000000	0.000000	0.000000	1
107.065915	3.206148	0.000000	-0.004338	-0.003928	0.000000	0.005852	2.310690	0.000000	0.000000	0.000000	0.000000	0.000000	1
110.174908	3.206148	0.000000	-0.004209	-0.005079	0.000000	0.006596	5.763332	0.000000	0.000000	0.000000	0.000000	0.000000	1
113.283900	3.206148	0.000000	0.000296	-0.000869	0.000000	0.000918	4.889906	0.000000	0.000000	0.000000	0.000000	0.000000	1
116.392892	3.206148	0.000000	-0.000606	0.001263	0.000000	0.001401	2.288725	0.000000	0.000000	0.000000	0.000000	0.000000	1
119.501884	3.206148	0.000000	0.000478	0.000026	0.000000	0.000479	1.047505	0.000000	0.000000	0.000000	0.000000	0.000000	1
122.610876	3.206148	0.000000	0.000230	-0.000365	0.000000	0.000431	0.844656	0.000000	0.000000	0.000000	0.000000	0.000000	1
125.719868	3.206148	0.000000	-0.000123	-0.000055	0.000000	0.000135	1.839140	0.000000	0.000000	0.000000	0.000000	0.000000	1
128.828860	3.206148	0.000000	-0.000670	0.000029	0.000000	0.000671	2.052353	0.000000	0.000000	0.000000	0.000000	0.000000	1
131.937852	3.206148	0.000000	-0.000299	-0.000385	0.000000	0.000488	1.660956	0.000000	0.000000	0.000000	0.000000	0.000000	1
135.046844	3.206148	0.000000	-0.004791	0.008098	0.000000	0.009409	1.172846	0.000000	0.000000	0.000000	0.000000	0.000000	1
138.155836	3.206148	0.000000	-0.013413	0.011430	0.000000	0.017622	-0.580592	0.000000	0.000000	0.000000	0.000000	0.000000	1
141.264829	3.206148	0.000000	-0.004041	0.006416	0.000000	0.007582	-0.924213	0.000000	0.000000	0.000000	0.000000	0.000000	1
144.373821	3.206148	0.000000	-0.003739	0.003560	0.000000	0.005163	-0.356404	0.000000	0.000000	0.000000	0.000000	0.000000	1
147.482813	3.206148	0.000000	-0.003721	0.002944	0.000000	0.004745	0.389374	0.000000	0.000000	0.000000	0.000000	0.000000	1
150.591805	3.206148	0.000000	-0.004710	0.004888	0.000000	0.006788	1.171250	0.000000	0.000000	0.000000	0.000000	0.000000	1
153.700797	3.206148	0.000000	-0.006510	0.007401	0.000000	0.009857	0.296105	0.000000	0.000000	0.000000	0.000000	0.000000	1
156.809789	3.206148	0.000000	-0.003385	0.006083	0.000000	0.006961	-0.656916	0.000000	0.000000	0.000000	0.000000	0.000000	1
159.918781	3.206148	0.000000	-0.004598	0.006256	0.000000	0.007764	-0.690881	0.000000	0.000000	0.000000	0.000000	0.000000	1
4.469176	6.315140	0.000000	0.004027	0.004658	0.000000	0.006158	0.576597	0.000000	0.000000	0.000000	0.000000	0.000000	1
7.578168	6.315140	0.000000	0.005714	0.006557	0.000000	0.008697	0.362263	0.000000	0.000000	0.000000	0.000000	0.000000	1
10.687160	6.315140	0.000000	0.007608	0.009553	0.000000	0.012212	-0.324575	0.000000	0.000000	0.000000	0.000000	0.000000	1
13.796152	6.315140	0.000000	0.001994	0.005238	0.000000	0.005605	-0.772900	0.000000	0.000000	0.000000	0.000000	0.000000	1
16.905145	6.315140	0.000000	0.004592	0.003672	0.000000	0.005880	-0.346366	0.000000	0.000000	0.000000	0.000000	0.000000	1
20.014137	6.315140	0.000000	0.003652	0.004368	0.000000	0.005693	0.228488	0.000000	0.000000	0.000000	0.000000	0.000000	1
23.123129	6.315140	0.000000	0.000809	0.005442	0.000000	0.005502	-0.410132	0.000000	0.000000	0.000000	0.000000	0.000000	1
26.232121	6.315140	0.000000	0.001869	0.003610	0.000000	0.004065	-0.875891	0.000000	0.000000	0.000000	0.000000	0.000000	1
29.341113	6.315140	0.000000	0.005036	0.006420	0.000000	0.008160	1.762384	0.000000	0.000000	0.000000	0.000000	0.000000	1
32.450105	6.315140	0.000000	0.019074	0.016524	0.000000	0.025236	1.553890	0.000000	0.000000	0.000000	0.000000	0.000000	1
35.559097	6.315140	0.000000	0.016819	0.014025	0.000000	0.021899	-2.166871	0.000000	0.000000	0.000000	0.000000	0.000000	1
38.668089	6.315140	0.000000	0.002585	0.002744	0.000000	0.003770	-2.892930	0.000000	0.000000	0.000000	0.000000	0.000000	1
41.777081	6.315140	0.000000	0.002132	-0.001621	0.000000	0.002679	-2.638519	0.000000	0.000000	0.000000	0.000000	0.000000	1
44.886073	6.315140	0.000000	0.002576	-0.002930	0.000000	0.003902	-2.355421	0.000000	0.000000	0.000000	0.000000	0.000000	1
47.995066	6.315140	0.000000	0.007270	-0.003634	0.000000	0.008127	2.628895	0.000000	0.000000	0.000000	0.000000	0.000000	1
51.104058	6.315140	0.000000	0.003396	0.017961	0.000000	0.018279	8.639831	0.000000	0.000000	0.000000	0.000000	0.000000	2
54.213050	6.315140	0.000000	0.012976	-0.009392	0.000000	0.016018	22.182360	0.000000	0.000000	0.000000	0.000000	0.000000	1
57.322042	6.315140	0.000000	-0.011607	0.033413	0.000000	0.035372	29.715344	0.000000	0.000000	0.000000	0.000000	0.000000	1
60.431034	6.315140	0.000000	-0.127613	0.022600	0.000000	0.129599	20.018411	0.000000	0.000000	0.000000	0.000000	0.000000	2
63.540026	6.315140	0.000000	-0.107211	0.005186	0.000000	0.107337	8.321570	0.000000	0.000000	0.000000	0.000000	0.000000	2
66.649018	6.315140	0.000000	-0.088488	-0.005712	0.000000	0.088672	8.809419	0.000000	0.000000	0.000000	0.000000	0.000000	2
69.758010	6.315140	0.000000	-0.033728	0.021020	0.000000	0.039742	19.057527	0.000000	0.000000	0.000000	0.000000	0.000000	2
72.867002	6.315140	0.000000	0.025885	0.099223	0.000000	0.102544	18.042299	0.000000	0.000000	0.000000	0.000000	0.000000	2
75.975994	6.315140	0.000000	0.030204	0.099578	0.000000	0.104058	56.587934	0.000000	0.000000	0.000000	0.000000	0.000000	1
79.084987	6.315140	0.000000	0.019942	0.440900	0.000000	0.441351	83.269857	0.000000	0.000000	0.000000	0.000000	0.000000	2
82.193979	6.315140	0.000000	-0.015064	0.592731	0.000000	0.592923	78.449127	0.000000	0.000000	0.000000	0.000000	0.000000	1
85.302971	6.315140	0.000000	-0.035530	0.815510	0.000000	0.816283	16.603558	0.000000	0.000000	0.000000	0.000000	0.000000	2
88.411963	6.315140	0.000000	-0.052824	0.650606	0.000000	0.652747	-119.837707	0.000000	0.000000	0.000000	0.000000	0.000000	2
91.520955	6.315140	0.000000	-0.059218	0.112090	0.000000	0.126771	-111.018066	0.000000	0.000000	0.000000	0.000000	0.000000	1
94.629947	6.315140	0.000000	-0.002692	0.017435	0.000000	0.017642	-23.567354	0.000000	0.000000	0.000000	0.000000	0.000000	1
97.738939	6.315140	0.000000	0.009293	-0.014578	0.000000	0.017288	-5.343449	0.000000	0.000000	0.000000	0.000000	0.000000	1
100.847931	6.315140	0.000000	0.010353	-0.022444	0.000000	0.024716	-1.086244	0.000000	0.000000	0.000000	0.000000	0.000000	1
103.956923	6.315140	0.000000	0.011017	-0.007271	0.000000	0.013200	-0.449742	0.000000	0.000000	0.000000	0.000000	0.000000	1
107.065915	6.315140	0.000000	-0.013383	-0.005426	0.000000	0.014441	-2.707920	0.000000	0.000000	0.000000	0.000000	0.000000	2
110.174908	6.315140	0.000000	-0.022873	-0.000609	0.000000	0.022881	-2.957552	0.000000	0.000000	0.000000	0.000000	0.000000	2
113.283900	6.315140	0.000000	-0.011487	0.005032	0.000000	0.012541	-0.409875	0.000000	0.000000	0.000000	0.000000	0.000000	1
116.392892	6.315140	0.000000	-0.007891	0.004345	0.000000	0.009009	0.572297	0.000000	0.000000	0.000000	0.000000	0.000000	1
119.501884	6.315140	0.000000	-0.004078	0.001690	0.000000	0.004414	0.012971	0.000000	0.000000	0.000000	0.000000	0.000000	1
122.610876	6.315140	0.000000	-0.004180	-0.001807	0.000000	0.004554	0.158316	0.000000	0.000000	0.000000	0.000000	0.000000	1
125.719868	6.315140	0.000000	-0.002426	-0.003402	0.000000	0.004179	1.738579	0.000000	0.000000	0.000000	0.000000	0.000000	1
128.828860	6.315140	0.000000	-0.004131	0.008195	0.000000	0.009177	1.937847	0.000000	0.000000	0.000000	0.000000	0.000000	1
131.937852	6.315140	0.000000	-0.005002	0.008524	0.000000	0.009883	1.162734	0.000000	0.000000	0.000000	0.000000	0.000000	1
135.046844	6.315140	0.000000	-0.005127	0.007579	0.000000	0.009150	0.828484	0.000000	0.000000	0.000000	0.000000	0.000000	1
138.155836	6.315140	0.000000	-0.011009	0.008323	0.000000	0.013801	-0.484131	0.000000	0.000000	0.000000	0.000000	0.000000	1
141.264829	6.315140	0.000000	-0.004459	0.006094	0.000000	0.007552	-0.467238	0.000000	0.000000	0.000000	0.000000	0.000000	1
144.373821	6.315140	0.000000	-0.004185	0.005821	0.000000	0.007169	0.647861	0.000000	0.000000	0.000000	0.000000	0.000000	1
147.482813	6.315140	0.000000	-0.003413	0.004132	0.000000	0.005360	1.730133	0.000000	0.000000	0.000000	0.000000	0.000000	1
150.591805	6.315140	0.000000	-0.007497	0.006719	0.000000	0.010067	2.156076	0.000000	0.000000	0.000000	0.000000	0.000000	1
153.700797	6.315140	0.000000	-0.007983	0.007503	0.000000	0.010955	0.802174	0.000000	0.000000	0.000000	0.000000	0.000000	1
156.809789	6.315140	0.000000	-0.001828	0.005031	0.000000	0.005353	0.014085	0.000000	0.000000	0.000000	0.000000	0.000000	1
159.918781	6.315140	0.000000	-0.002005	0.004712	0.000000	0.005120	0.291369	0.000000	0.000000	0.000000	0.000000	0.000000	1
4.469176	9.424132	0.000000	0.002976	0.004855	0.000000	0.005694	1.214071	0.000000	0.000000	0.000000	0.000000	0.000000	1
7.578168	9.424132	0.000000	0.006757	0.010402	0.000000	0.012404	1.018967	0.000000	0.000000	0.000000	0.000000	0.000000	1
10.687160	9.424132	0.000000	0.007993	0.011865	0.000000	0.014306	0.346173	0.000000	0.000000	0.000000	0.000000	0.000000	1
13.796152	9.424132	0.000000	0.001377	0.009778	0.000000	0.009875	-0.423482	0.000000	0.000000	0.000000	0.000000	0.000000	1
16.905145	9.424132	0.000000	0.004376	0.006119	0.000000	0.007522	-0.575320	0.000000	0.000000	0.000000	0.000000	0.000000	1
20.014137	9.424132	0.000000	0.002226	0.003118	0.000000	0.003831	0.108297	0.000000	0.000000	0.000000	0.000000	0.000000	1
23.123129	9.424132	0.000000	-0.000066	0.003351	0.000000	0.003352	0.102886	0.000000	0.000000	0.000000	0.000000	0.000000	1
26.232121	9.424132	0.000000	0.010099	0.004285	0.000000	0.010970	-0.314504	0.000000	0.000000	0.000000	0.000000	0.000000	1
29.341113	9.424132	0.000000	0.012529	0.006556	0.000000	0.014140	0.830227	0.000000	0.000000	0.000000	0.000000	0.000000	1
32.450105	9.424132	0.000000	0.007906	0.005963	0.000000	0.009902	1.468342	0.000000	0.000000	0.000000	0.000000	0.000000	1
35.559097	9.424132	0.000000	0.011350	0.003943	0.000000	0.012015	-0.540569	0.000000	0.000000	0.000000	0.000000	0.000000	1
38.668089	9.424132	0.000000	0.015113	0.001414	0.000000	0.015179	-0.141916	0.000000	0.000000	0.000000	0.000000	0.000000	1
41.777081	9.424132	0.000000	0.019246	0.010752	0.000000	0.022046	0.931782	0.000000	0.000000	0.000000	0.000000	0.000000	1
44.886073	9.424132	0.000000	0.012766	0.007474	0.000000	0.014792	0.124647	0.000000	0.000000	0.000000	0.000000	0.000000	1
47.995066	9.424132	0.000000	0.009048	0.005576	0.000000	0.010628	7.993098	0.000000	0.000000	0.000000	0.000000	0.000000	1
51.104058	9.424132	0.000000	-0.028297	0.027401	0.000000	0.039389	20.306165	0.000000	0.000000	0.000000	0.000000	0.000000	2
54.213050	9.424132	0.000000	-0.118835	0.060729	0.000000	0.133454	39.019359	0.000000	0.000000	0.000000	0.000000	0.000000	2
57.322042	9.424132	0.000000	-0.187373	0.093851	0.000000	0.209563	45.545178	0.000000	0.000000	0.000000	0.000000	0.000000	2
60.431034	9.424132	0.000000	-0.165337	0.090047	0.000000	0.188268	23.957689	0.000000	0.000000	0.000000	0.000000	0.000000	2
63.540026	9.424132	0.000000	-0.137073	0.117356	0.000000	0.180448	2.947732	0.000000	0.000000	0.000000	0.000000	0.000000	2
66.649018	9.424132	0.000000	-0.099643	0.068770	0.000000	0.121070	2.742465	0.000000	0.000000	0.000000	0.000000	0.000000	1
69.758010	9.424132	0.000000	-0.048100	0.110473	0.000000	0.120490	15.281370	0.000000	0.000000	0.000000	0.000000	0.000000	1
72.867002	9.424132	0.000000	-0.015342	0.156540	0.000000	0.157290	19.440390	0.000000	0.000000	0.000000	0.000000	0.000000	2
75.975994	9.424132	0.000000	-0.011194	0.202442	0.000000	0.202751	62.367958	0.000000	0.000000	0.000000	0.000000	0.000000	2
79.084987	9.424132	0.000000	-0.012207	0.496028	0.000000	0.496179	118.857955	0.000000	0.000000	0.000000	0.000000	0.000000	2
82.193979	9.424132	0.000000	-0.016785	0.857586	0.000000	0.857750	128.972809	0.000000	0.000000	0.000000	0.000000	0.000000	2
85.302971	9.424132	0.000000	-0.023083	1.258171	0.000000	1.258383	24.601362	0.000000	0.000000	0.000000	0.000000	0.000000	1
88.411963	9.424132	0.000000	-0.049191	0.865014	0.000000	0.866411	-174.597901	0.000000	0.000000	0.000000	0.000000	0.000000	2
91.520955	9.424132	0.000000	-0.023346	0.043655	0.000000	0.049505	-147.022351	0.000000	0.000000	0.000000	0.000000	0.000000	2
94.629947	9.424132	0.000000	0.000971	-0.009362	0.000000	0.009412	-12.760318	0.000000	0.000000	0.000000	0.000000	0.000000	1
97.738939	9.424132	0.000000	0.014982	0.001987	0.000000	0.015113	-3.825843	0.000000	0.000000	0.000000	0.000000	0.000000	1
100.847931	9.424132	0.000000	0.013230	-0.002288	0.000000	0.013427	-3.076226	0.000000	0.000000	0.000000	0.000000	0.000000	1
103.956923	9.424132	0.000000	0.010529	-0.009235	0.000000	0.014005	0.920178	0.000000	0.000000	0.000000	0.000000	0.000000	1
107.065915	9.424132	0.000000	0.025876	0.014915	0.000000	0.029867	-2.435204	0.000000	0.000000	0.000000	0.000000	0.000000	1
110.174908	9.424132	0.000000	0.026363	0.015283	0.000000	0.030473	-8.133690	0.000000	0.000000	0.000000	0.000000	0.000000	1
113.283900	9.424132	0.000000	-0.005474	0.002969	0.000000	0.006227	-4.974798	0.000000	0.000000	0.000000	0.000000	0.000000	1
116.392892	9.424132	0.000000	-0.006540	0.001937	0.000000	0.006820	-1.366068	0.000000	0.000000	0.000000	0.000000	0.000000	1
119.501884	9.424132	0.000000	-0.002499	0.002377	0.000000	0.003449	0.144435	0.000000	0.000000	0.000000	0.000000	0.000000	1
122.610876	9.424132	0.000000	-0.004135	-0.000061	0.000000	0.004135	1.966400	0.000000	0.000000	0.000000	0.000000	0.000000	1
125.719868	9.424132	0.000000	-0.006065	-0.001068	0.000000	0.006158	2.583545	0.000000	0.000000	0.000000	0.000000	0.000000	1
128.828860	9.424132	0.000000	-0.004162	0.003043	0.000000	0.005156	1.954125	0.000000	0.000000	0.000000	0.000000	0.000000	1
131.937852	9.424132	0.000000	-0.004122	0.006861	0.000000	0.008004	1.458052	0.000000	0.000000	0.000000	0.000000	0.000000	1
135.046844	9.424132	0.000000	-0.008029	0.010751	0.000000	0.013418	0.946302	0.000000	0.000000	0.000000	0.000000	0.000000	1
138.155836	9.424132	0.000000	-0.008239	0.010929	0.000000	0.013687	-0.622910	0.000000	0.000000	0.000000	0.000000	0.000000	1
141.264829	9.424132	0.000000	-0.006749	0.007763	0.000000	0.010286	-0.795149	0.000000	0.000000	0.000000	0.000000	0.000000	1
144.373821	9.424132	0.000000	-0.012952	0.002727	0.000000	0.013236	0.498901	0.000000	0.000000	0.000000	0.000000	0.000000	1
147.482813	9.424132	0.000000	-0.012230	0.001630	0.000000	0.012338	1.269338	0.000000	0.000000	0.000000	0.000000	0.000000	1
150.591805	9.424132	0.000000	-0.014599	0.006516	0.000000	0.015987	0.579963	0.000000	0.000000	0.000000	0.000000	0.000000	1
153.700797	9.424132	0.000000	-0.014333	0.007948	0.000000	0.016390	-0.349710	0.000000	0.000000	0.000000	0.000000	0.000000	1
156.809789	9.424132	0.000000	-0.001920	0.004578	0.000000	0.004964	0.479074	0.000000	0.000000	0.000000	0.000000	0.000000	1
159.918781	9.424132	0.000000	-0.007297	0.007433	0.000000	0.010416	1.320224	0.000000	0.000000	0.000000	0.000000	0.000000	1
4.469176	12.533124	0.000000	0.002718	0.007334	0.000000	0.007821	0.489639	0.000000	0.000000	0.000000	0.000000	0.000000	1
7.578168	12.533124	0.000000	0.003581	0.005996	0.000000	0.006984	0.429569	0.000000	0.000000	0.000000	0.000000	0.000000	1
10.687160	12.533124	0.000000	0.004816	0.005397	0.000000	0.007234	0.223651	0.000000	0.000000	0.000000	0.000000	0.000000	1
13.796152	12.533124	0.000000	0.001345	0.008809	0.000000	0.008911	-0.539785	0.000000	0.000000	0.000000	0.000000	0.000000	1
16.905145	12.533124	0.000000	0.004023	0.007580	0.000000	0.008581	-1.180024	0.000000	0.000000	0.000000	0.000000	0.000000	1
20.014137	12.533124	0.000000	-0.000901	0.002353	0.000000	0.002519	-0.797470	0.000000	0.000000	0.000000	0.000000	0.000000	1
23.123129	12.533124	0.000000	-0.000826	0.002730	0.000000	0.002852	0.077231	0.000000	0.000000	0.000000	0.000000	0.000000	1
26.232121	12.533124	0.000000	0.010206	0.003850	0.000000	0.010908	1.046911	0.000000	0.000000	0.000000	0.000000	0.000000	1
29.341113	12.533124	0.000000	0.006956	0.004478	0.000000	0.008273	1.287949	0.000000	0.000000	0.000000	0.000000	0.000000	1
32.450105	12.533124	0.000000	0.003631	0.004964	0.000000	0.006150	0.528940	0.000000	0.000000	0.000000	0.000000	0.000000	1
35.559097	12.533124	0.000000	0.010540	0.003375	0.000000	0.011068	-0.072250	0.000000	0.000000	0.000000	0.000000	0.000000	1
38.668089	12.533124	0.000000	0.013134	-0.003057	0.000000	0.013485	8.753685	0.000000	0.000000	0.000000	0.000000	0.000000	1
41.777081	12.533124	0.000000	0.013671	0.028230	0.000000	0.031366	17.945291	0.000000	0.000000	0.000000	0.000000	0.000000	2
44.886073	12.533124	0.000000	0.025813	0.070536	0.000000	0.075111	15.523476	0.000000	0.000000	0.000000	0.000000	0.000000	1
47.995066	12.533124	0.000000	-0.035771	0.058666	0.000000	0.068711	17.680568	0.000000	0.000000	0.000000	0.000000	0.000000	1
51.104058	12.533124	0.000000	-0.052515	0.089838	0.000000	0.104061	29.290930	0.000000	0.000000	0.000000	0.000000	0.000000	1
54.213050	12.533124	0.000000	-0.193968	0.097367	0.000000	0.217034	35.106891	0.000000	0.000000	0.000000	0.000000	0.000000	2
57.322042	12.533124	0.000000	-0.313409	0.140376	0.000000	0.343410	40.489695	0.000000	0.000000	0.000000	0.000000	0.000000	2
60.431034	12.533124	0.000000	-0.181026	0.275578	0.000000	0.329718	41.690895	0.000000	0.000000	0.000000	0.000000	0.000000	1
63.540026	12.533124	0.000000	-0.118269	0.297785	0.000000	0.320411	27.156938	0.000000	0.000000	0.000000	0.000000	0.000000	2
66.649018	12.533124	0.000000	-0.118328	0.314393	0.000000	0.335923	17.327427	0.000000	0.000000	0.000000	0.000000	0.000000	2
69.758010	12.533124	0.000000	-0.056217	0.270701	0.000000	0.276477	13.155768	0.000000	0.000000	0.000000	0.000000	0.000000	1
72.867002	12.533124	0.000000	-0.038182	0.275113	0.000000	0.277750	-0.087138	0.000000	0.000000	0.000000	0.000000	0.000000	1
75.975994	12.533124	0.000000	-0.155463	0.155436	0.000000	0.219839	16.005613	0.000000	0.000000	0.000000	0.000000	0.000000	2
79.084987	12.533124	0.000000	-0.158321	0.192010	0.000000	0.248864	96.249232	0.000000	0.000000	0.000000	0.000000	0.000000	2
82.193979	12.533124	0.000000	-0.081042	0.700059	0.000000	0.704734	153.598282	0.000000	0.000000	0.000000	0.000000	0.000000	2
85.302971	12.533124	0.000000	-0.061721	1.164517	0.000000	1.166151	44.558383	0.000000	0.000000	0.000000	0.000000	0.000000	1
88.411963	12.533124	0.000000	-0.044752	1.128926	0.000000	1.129812	-173.615296	0.000000	0.000000	0.000000	0.000000	0.000000	2
91.520955	12.533124	0.000000	-0.002102	0.001439	0.000000	0.002547	-146.202393	0.000000	0.000000	0.000000	0.000000	0.000000	2
94.629947	12.533124	0.000000	0.016070	-0.004825	0.000000	0.016779	-6.994609	0.000000	0.000000	0.000000	0.000000	0.000000	1
97.738939	12.533124	0.000000	0.033599	0.013015	0.000000	0.036032	-3.316604	0.000000	0.000000	0.000000	0.000000	0.000000	1
100.847931	12.533124	0.000000	0.020053	0.002823	0.000000	0.020251	-3.711077	0.000000	0.000000	0.000000	0.000000	0.000000	1
103.956923	12.533124	0.000000	0.004825	-0.010847	0.000000	0.011871	4.518142	0.000000	0.000000	0.000000	0.000000	0.000000	1
107.065915	12.533124	0.000000	0.034173	0.019156	0.000000	0.039176	7.061651	0.000000	0.000000	0.000000	0.000000	0.000000	1
110.174908	12.533124	0.000000	0.034624	0.019303	0.000000	0.039641	-1.133253	0.000000	0.000000	0.000000	0.000000	0.000000	1
113.283900	12.533124	0.000000	-0.000340	0.003986	0.000000	0.004001	-2.457105	0.000000	0.000000	0.000000	0.000000	0.000000	1
116.392892	12.533124	0.000000	-0.001707	0.003282	0.000000	0.003700	-0.970317	0.000000	0.000000	0.000000	0.000000	0.000000	1
119.501884	12.533124	0.000000	-0.007361	-0.005234	0.000000	0.009032	0.652084	0.000000	0.000000	0.000000	0.000000	0.000000	1
122.610876	12.533124	0.000000	-0.016795	0.004026	0.000000	0.017271	3.588241	0.000000	0.000000	0.000000	0.000000	0.000000	1
125.719868	12.533124	0.000000	-0.017044	0.012525	0.000000	0.021152	2.303453	0.000000	0.000000	0.000000	0.000000	0.000000	1
128.828860	12.533124	0.000000	-0.007083	0.007270	0.000000	0.010149	1.125654	0.000000	0.000000	0.000000	0.000000	0.000000	1
131.937852	12.533124	0.000000	-0.008226	0.009600	0.000000	0.012642	1.833949	0.000000	0.000000	0.000000	0.000000	0.000000	1
135.046844	12.533124	0.000000	-0.010889	0.013574	0.000000	0.017402	1.260430	0.000000	0.000000	0.000000	0.000000	0.000000	1
138.155836	12.533124	0.000000	-0.009531	0.011931	0.000000	0.015270	-0.390216	0.000000	0.000000	0.000000	0.000000	0.000000	1
141.264829	12.533124	0.000000	-0.003416	0.003779	0.000000	0.005094	-0.979619	0.000000	0.000000	0.000000	0.000000	0.000000	1
144.373821	12.533124	0.000000	-0.014036	0.004773	0.000000	0.014825	-0.992131	0.000000	0.000000	0.000000	0.000000	0.000000	1
147.482813	12.533124	0.000000	-0.012116	0.003052	0.000000	0.012494	-1.614725	0.000000	0.000000	0.000000	0.000000	0.000000	1
150.591805	12.533124	0.000000	-0.005150	0.002958	0.000000	0.005939	-2.086558	0.000000	0.000000	0.000000	0.000000	0.000000	1
153.700797	12.533124	0.000000	-0.002593	0.002850	0.000000	0.003853	-1.308415	0.000000	0.000000	0.000000	0.000000	0.000000	1
156.809789	12.533124	0.000000	-0.007340	0.007438	0.000000	0.010450	0.349171	0.000000	0.000000	0.000000	0.000000	0.000000	1
159.918781	12.533124	0.000000	-0.003893	0.011066	0.000000	0.011731	1.151609	0.000000	0.000000	0.000000	0.000000	0.000000	1
4.469176	15.642117	0.000000	0.002665	0.006301	0.000000	0.006842	0.243196	0.000000	0.000000	0.000000	0.000000	0.000000	1
7.578168	15.642117	0.000000	0.004743	0.007193	0.000000	0.008616	0.373648	0.000000	0.000000	0.000000	0.000000	0.000000	1
10.687160	15.642117	0.000000	0.006592	0.008108	0.000000	0.010450	0.338901	0.000000	0.000000	0.000000	0.000000	0.000000	1
13.796152	15.642117	0.000000	0.005826	0.007387	0.000000	0.009408	-0.251326	0.000000	0.000000	0.000000	0.000000	0.000000	1
16.905145	15.642117	0.000000	0.003538	0.002724	0.000000	0.004465	-0.763742	0.000000	0.000000	0.000000	0.000000	0.000000	1
20.014137	15.642117	0.000000	0.004858	0.003017	0.000000	0.005718	-0.988511	0.000000	0.000000	0.000000	0.000000	0.000000	1
23.123129	15.642117	0.000000	0.002600	0.002449	0.000000	0.003572	-0.356580	0.000000	0.000000	0.000000	0.000000	0.000000	1
26.232121	15.642117	0.000000	0.004115	0.002756	0.000000	0.004952	0.767272	0.000000	0.000000	0.000000	0.000000	0.000000	1
29.341113	15.642117	0.000000	0.004481	0.004436	0.000000	0.006305	0.446895	0.000000	0.000000	0.000000	0.000000	0.000000	1
32.450105	15.642117	0.000000	0.004127	0.005026	0.000000	0.006503	-0.135843	0.000000	0.000000	0.000000	0.000000	0.000000	1
35.559097	15.642117	0.000000	0.005831	0.001287	0.000000	0.005971	7.847106	0.000000	0.000000	0.000000	0.000000	0.000000	1
38.668089	15.642117	0.000000	0.002921	-0.003190	0.000000	0.004325	33.649539	0.000000	0.000000	0.000000	0.000000	0.000000	1
41.777081	15.642117	0.000000	-0.046879	0.066463	0.000000	0.081332	56.573697	0.000000	0.000000	0.000000	0.000000	0.000000	1
44.886073	15.642117	0.000000	-0.056240	0.076453	0.000000	0.094911	53.359561	0.000000	0.000000	0.000000	0.000000	0.000000	2
47.995066	15.642117	0.000000	-0.086071	0.097612	0.000000	0.130139	45.055660	0.000000	0.000000	0.000000	0.000000	0.000000	1
51.104058	15.642117	0.000000	-0.118314	0.108413	0.000000	0.160472	52.990017	0.000000	0.000000	0.000000	0.000000	0.000000	1
54.213050	15.642117	0.000000	-0.307353	0.229910	0.000000	0.383829	38.585074	0.000000	0.000000	0.000000	0.000000	0.000000	1
57.322042	15.642117	0.000000	-0.300710	0.233676	0.000000	0.380830	25.437650	0.000000	0.000000	0.000000	0.000000	0.000000	1
60.431034	15.642117	0.000000	-0.297991	0.303383	0.000000	0.425253	62.206172	0.000000	0.000000	0.000000	0.000000	0.000000	1
63.540026	15.642117	0.000000	-0.247738	0.442980	0.000000	0.507548	76.619967	0.000000	0.000000	0.000000	0.000000	0.000000	1
66.649018	15.642117	0.000000	-0.171671	0.496466	0.000000	0.525308	60.719718	0.000000	0.000000	0.000000	0.000000	0.000000	2
69.758010	15.642117	0.000000	-0.083113	0.645263	0.000000	0.650593	29.239336	0.000000	0.000000	0.000000	0.000000	0.000000	1
72.867002	15.642117	0.000000	-0.125494	0.562260	0.000000	0.576094	-23.440462	0.000000	0.000000	0.000000	0.000000	0.000000	1
75.975994	15.642117	0.000000	-0.170429	0.367104	0.000000	0.404736	-38.897506	0.000000	0.000000	0.000000	0.000000	0.000000	2
79.084987	15.642117	0.000000	-0.189444	0.181209	0.000000	0.262156	22.879957	0.000000	0.000000	0.000000	0.000000	0.000000	2
82.193979	15.642117	0.000000	-0.175283	0.344418	0.000000	0.386455	87.307412	0.000000	0.000000	0.000000	0.000000	0.000000	2
85.302971	15.642117	0.000000	-0.076637	0.746563	0.000000	0.750486	6.388688	0.000000	0.000000	0.000000	0.000000	0.000000	2
88.411963	15.642117	0.000000	-0.011900	0.359198	0.000000	0.359395	-119.564782	0.000000	0.000000	0.000000	0.000000	0.000000	2
91.520955	15.642117	0.000000	0.011865	0.025314	0.000000	0.027957	-79.586799	0.000000	0.000000	0.000000	0.000000	0.000000	2
94.629947	15.642117	0.000000	0.037634	0.009106	0.000000	0.038720	-2.567383	0.000000	0.000000	0.000000	0.000000	0.000000	1
97.738939	15.642117	0.000000	0.035653	-0.000931	0.000000	0.035665	-0.103081	0.000000	0.000000	0.000000	0.000000	0.000000	1
100.847931	15.642117	0.000000	0.019919	-0.011062	0.000000	0.022784	-1.033729	0.000000	0.000000	0.000000	0.000000	0.000000	1
103.956923	15.642117	0.000000	-0.003953	-0.014723	0.000000	0.015244	5.300554	0.000000	0.000000	0.000000	0.000000	0.000000	1
107.065915	15.642117	0.000000	0.013317	0.016609	0.000000	0.021289	9.729778	0.000000	0.000000	0.000000	0.000000	0.000000	1
110.174908	15.642117	0.000000	0.021080	0.031214	0.000000	0.037665	3.260805	0.000000	0.000000	0.000000	0.000000	0.000000	1
113.283900	15.642117	0.000000	-0.007371	0.005686	0.000000	0.009310	1.513611	0.000000	0.000000	0.000000	0.000000	0.000000	1
116.392892	15.642117	0.000000	-0.003988	0.008961	0.000000	0.009808	1.962085	0.000000	0.000000	0.000000	0.000000	0.000000	1
119.501884	15.642117	0.000000	-0.008191	-0.001903	0.000000	0.008409	0.585735	0.000000	0.000000	0.000000	0.000000	0.000000	1