TITLE = "PIV Result  2003 "
VARIABLES = "X (mm)""Y (mm)""Z (mm)""U (m/s)""V (m/s)""W (m/s)""Speed (m/s)""Vorticity""U-std""V-std""W-std""Speed-std""Vorticity-std""Flag"
ZONE T="ZONE 2003 "
I= 51 , J= 16 , K= 1 , F=POINT
DT=(DOUBLE DOUBLE DOUBLE DOUBLE DOUBLE DOUBLE DOUBLE DOUBLE DOUBLE DOUBLE DOUBLE DOUBLE DOUBLE DOUBLE)
4.469176	3.206148	0.000000	0.001879	0.007403	0.000000	0.007637	0.915725	0.000000	0.000000	0.000000	0.000000	0.000000	1
7.578168	3.206148	0.000000	0.000657	0.009686	0.000000	0.009709	0.992586	0.000000	0.000000	0.000000	0.000000	0.000000	1
10.687160	3.206148	0.000000	0.003485	0.008326	0.000000	0.009026	0.635528	0.000000	0.000000	0.000000	0.000000	0.000000	1
13.796152	3.206148	0.000000	0.002089	0.007748	0.000000	0.008025	-1.131194	0.000000	0.000000	0.000000	0.000000	0.000000	1
16.905145	3.206148	0.000000	0.001717	0.007297	0.000000	0.007496	-1.780938	0.000000	0.000000	0.000000	0.000000	0.000000	1
20.014137	3.206148	0.000000	0.004437	0.007405	0.000000	0.008633	-0.701450	0.000000	0.000000	0.000000	0.000000	0.000000	1
23.123129	3.206148	0.000000	0.006208	0.007356	0.000000	0.009626	-0.005152	0.000000	0.000000	0.000000	0.000000	0.000000	1
26.232121	3.206148	0.000000	0.007582	0.006594	0.000000	0.010048	0.077343	0.000000	0.000000	0.000000	0.000000	0.000000	1
29.341113	3.206148	0.000000	0.006163	0.004118	0.000000	0.007412	0.203238	0.000000	0.000000	0.000000	0.000000	0.000000	1
32.450105	3.206148	0.000000	0.007310	0.008283	0.000000	0.011047	-1.798984	0.000000	0.000000	0.000000	0.000000	0.000000	1
35.559097	3.206148	0.000000	-0.008310	0.000255	0.000000	0.008313	-4.855137	0.000000	0.000000	0.000000	0.000000	0.000000	1
38.668089	3.206148	0.000000	-0.006301	-0.000074	0.000000	0.006302	-4.889752	0.000000	0.000000	0.000000	0.000000	0.000000	1
41.777081	3.206148	0.000000	-0.000368	-0.000500	0.000000	0.000620	-3.032998	0.000000	0.000000	0.000000	0.000000	0.000000	1
44.886073	3.206148	0.000000	0.001350	0.000635	0.000000	0.001492	-2.039629	0.000000	0.000000	0.000000	0.000000	0.000000	1
47.995066	3.206148	0.000000	0.000102	0.000914	0.000000	0.000920	-1.779114	0.000000	0.000000	0.000000	0.000000	0.000000	1
51.104058	3.206148	0.000000	0.003956	-0.001658	0.000000	0.004290	-1.219166	0.000000	0.000000	0.000000	0.000000	0.000000	1
54.213050	3.206148	0.000000	0.004608	-0.001375	0.000000	0.004809	3.789680	0.000000	0.000000	0.000000	0.000000	0.000000	1
57.322042	3.206148	0.000000	0.004553	0.001396	0.000000	0.004762	33.232730	0.000000	0.000000	0.000000	0.000000	0.000000	1
60.431034	3.206148	0.000000	-0.039556	0.001659	0.000000	0.039591	78.772823	0.000000	0.000000	0.000000	0.000000	0.000000	2
63.540026	3.206148	0.000000	-0.220726	0.151054	0.000000	0.267464	119.568206	0.000000	0.000000	0.000000	0.000000	0.000000	2
66.649018	3.206148	0.000000	-0.301490	0.222748	0.000000	0.374850	150.798939	0.000000	0.000000	0.000000	0.000000	0.000000	2
69.758010	3.206148	0.000000	-0.738301	0.587885	0.000000	0.943768	91.170435	0.000000	0.000000	0.000000	0.000000	0.000000	2
72.867002	3.206148	0.000000	-1.038451	0.702090	0.000000	1.253520	-57.081959	0.000000	0.000000	0.000000	0.000000	0.000000	1
75.975994	3.206148	0.000000	-0.344173	0.238001	0.000000	0.418449	-51.282724	0.000000	0.000000	0.000000	0.000000	0.000000	1
79.084987	3.206148	0.000000	-0.324344	0.278863	0.000000	0.427742	-23.829450	0.000000	0.000000	0.000000	0.000000	0.000000	1
82.193979	3.206148	0.000000	-0.156545	0.142511	0.000000	0.211697	-68.431658	0.000000	0.000000	0.000000	0.000000	0.000000	2
85.302971	3.206148	0.000000	0.000127	-0.001906	0.000000	0.001910	-28.393164	0.000000	0.000000	0.000000	0.000000	0.000000	1
88.411963	3.206148	0.000000	-0.017692	0.004633	0.000000	0.018288	-1.936735	0.000000	0.000000	0.000000	0.000000	0.000000	1
91.520955	3.206148	0.000000	-0.038584	-0.000022	0.000000	0.038584	-5.664499	0.000000	0.000000	0.000000	0.000000	0.000000	1
94.629947	3.206148	0.000000	-0.024589	-0.019940	0.000000	0.031658	-0.853643	0.000000	0.000000	0.000000	0.000000	0.000000	2
97.738939	3.206148	0.000000	-0.000060	-0.001657	0.000000	0.001658	2.210871	0.000000	0.000000	0.000000	0.000000	0.000000	1
100.847931	3.206148	0.000000	0.001343	0.001241	0.000000	0.001828	-2.293590	0.000000	0.000000	0.000000	0.000000	0.000000	1
103.956923	3.206148	0.000000	-0.000751	0.002711	0.000000	0.002813	-3.166127	0.000000	0.000000	0.000000	0.000000	0.000000	1
107.065915	3.206148	0.000000	-0.002088	0.001500	0.000000	0.002571	-1.661757	0.000000	0.000000	0.000000	0.000000	0.000000	1
110.174908	3.206148	0.000000	-0.002873	-0.001475	0.000000	0.003230	-1.072673	0.000000	0.000000	0.000000	0.000000	0.000000	1
113.283900	3.206148	0.000000	-0.001342	-0.001047	0.000000	0.001702	-0.395478	0.000000	0.000000	0.000000	0.000000	0.000000	1
116.392892	3.206148	0.000000	-0.001437	0.001609	0.000000	0.002157	1.654522	0.000000	0.000000	0.000000	0.000000	0.000000	1
119.501884	3.206148	0.000000	0.001204	0.001134	0.000000	0.001654	1.033377	0.000000	0.000000	0.000000	0.000000	0.000000	1
122.610876	3.206148	0.000000	0.001206	0.001133	0.000000	0.001655	-0.114422	0.000000	0.000000	0.000000	0.000000	0.000000	1
125.719868	3.206148	0.000000	0.001064	0.000920	0.000000	0.001406	5.180295	0.000000	0.000000	0.000000	0.000000	0.000000	1
128.828860	3.206148	0.000000	-0.000114	-0.000075	0.000000	0.000136	6.646408	0.000000	0.000000	0.000000	0.000000	0.000000	1
131.937852	3.206148	0.000000	-0.000042	-0.000186	0.000000	0.000191	3.342197	0.000000	0.000000	0.000000	0.000000	0.000000	1
135.046844	3.206148	0.000000	0.001343	0.005798	0.000000	0.005952	2.372199	0.000000	0.000000	0.000000	0.000000	0.000000	1
138.155836	3.206148	0.000000	0.000569	0.006592	0.000000	0.006616	2.052406	0.000000	0.000000	0.000000	0.000000	0.000000	1
141.264829	3.206148	0.000000	0.000654	0.006465	0.000000	0.006497	3.465560	0.000000	0.000000	0.000000	0.000000	0.000000	1
144.373821	3.206148	0.000000	0.000119	0.003853	0.000000	0.003855	4.655820	0.000000	0.000000	0.000000	0.000000	0.000000	1
147.482813	3.206148	0.000000	-0.003550	0.005428	0.000000	0.006485	4.221887	0.000000	0.000000	0.000000	0.000000	0.000000	1
150.591805	3.206148	0.000000	-0.004653	0.005428	0.000000	0.007150	2.853707	0.000000	0.000000	0.000000	0.000000	0.000000	1
153.700797	3.206148	0.000000	-0.007471	0.008113	0.000000	0.011029	0.496429	0.000000	0.000000	0.000000	0.000000	0.000000	1
156.809789	3.206148	0.000000	-0.008528	0.008733	0.000000	0.012207	-1.354649	0.000000	0.000000	0.000000	0.000000	0.000000	1
159.918781	3.206148	0.000000	-0.007746	0.008603	0.000000	0.011577	-1.563245	0.000000	0.000000	0.000000	0.000000	0.000000	1
4.469176	6.315140	0.000000	-0.000674	0.007206	0.000000	0.007238	1.085936	0.000000	0.000000	0.000000	0.000000	0.000000	1
7.578168	6.315140	0.000000	0.001930	0.009336	0.000000	0.009533	1.542416	0.000000	0.000000	0.000000	0.000000	0.000000	1
10.687160	6.315140	0.000000	0.002171	0.017304	0.000000	0.017440	1.235197	0.000000	0.000000	0.000000	0.000000	0.000000	1
13.796152	6.315140	0.000000	0.001770	0.017502	0.000000	0.017591	-1.232668	0.000000	0.000000	0.000000	0.000000	0.000000	1
16.905145	6.315140	0.000000	0.006604	0.007201	0.000000	0.009771	-1.756460	0.000000	0.000000	0.000000	0.000000	0.000000	1
20.014137	6.315140	0.000000	0.006573	0.007289	0.000000	0.009815	-0.365255	0.000000	0.000000	0.000000	0.000000	0.000000	1
23.123129	6.315140	0.000000	0.005745	0.007114	0.000000	0.009144	0.147722	0.000000	0.000000	0.000000	0.000000	0.000000	1
26.232121	6.315140	0.000000	0.005443	0.007107	0.000000	0.008952	0.180124	0.000000	0.000000	0.000000	0.000000	0.000000	1
29.341113	6.315140	0.000000	0.003579	0.003988	0.000000	0.005359	-0.205049	0.000000	0.000000	0.000000	0.000000	0.000000	1
32.450105	6.315140	0.000000	0.008424	0.001750	0.000000	0.008603	-0.985506	0.000000	0.000000	0.000000	0.000000	0.000000	1
35.559097	6.315140	0.000000	0.012214	0.005644	0.000000	0.013455	-2.155562	0.000000	0.000000	0.000000	0.000000	0.000000	1
38.668089	6.315140	0.000000	0.007759	0.005949	0.000000	0.009777	-2.955687	0.000000	0.000000	0.000000	0.000000	0.000000	1
41.777081	6.315140	0.000000	0.004352	-0.001047	0.000000	0.004476	-2.543066	0.000000	0.000000	0.000000	0.000000	0.000000	1
44.886073	6.315140	0.000000	0.006380	-0.003950	0.000000	0.007504	-1.256979	0.000000	0.000000	0.000000	0.000000	0.000000	1
47.995066	6.315140	0.000000	0.009854	-0.003294	0.000000	0.010390	0.763553	0.000000	0.000000	0.000000	0.000000	0.000000	1
51.104058	6.315140	0.000000	0.005080	0.001877	0.000000	0.005416	1.913091	0.000000	0.000000	0.000000	0.000000	0.000000	1
54.213050	6.315140	0.000000	0.009229	0.000454	0.000000	0.009240	17.259895	0.000000	0.000000	0.000000	0.000000	0.000000	1
57.322042	6.315140	0.000000	-0.023686	0.028078	0.000000	0.036734	71.634958	0.000000	0.000000	0.000000	0.000000	0.000000	1
60.431034	6.315140	0.000000	-0.226471	0.171931	0.000000	0.284340	107.293030	0.000000	0.000000	0.000000	0.000000	0.000000	2
63.540026	6.315140	0.000000	-0.382254	0.294442	0.000000	0.482509	109.655358	0.000000	0.000000	0.000000	0.000000	0.000000	1
66.649018	6.315140	0.000000	-0.679429	0.549882	0.000000	0.874067	95.964493	0.000000	0.000000	0.000000	0.000000	0.000000	1
69.758010	6.315140	0.000000	-0.959195	0.594647	0.000000	1.128565	26.691355	0.000000	0.000000	0.000000	0.000000	0.000000	2
72.867002	6.315140	0.000000	-0.797174	0.625888	0.000000	1.013520	-70.647468	0.000000	0.000000	0.000000	0.000000	0.000000	1
75.975994	6.315140	0.000000	-0.557734	0.282761	0.000000	0.625317	-74.181102	0.000000	0.000000	0.000000	0.000000	0.000000	1
79.084987	6.315140	0.000000	-0.313217	0.236645	0.000000	0.392563	-54.139936	0.000000	0.000000	0.000000	0.000000	0.000000	1
82.193979	6.315140	0.000000	0.001232	0.048377	0.000000	0.048393	-55.130019	0.000000	0.000000	0.000000	0.000000	0.000000	1
85.302971	6.315140	0.000000	0.003772	-0.003277	0.000000	0.004997	-16.800678	0.000000	0.000000	0.000000	0.000000	0.000000	1
88.411963	6.315140	0.000000	-0.009983	0.005933	0.000000	0.011613	-4.302453	0.000000	0.000000	0.000000	0.000000	0.000000	1
91.520955	6.315140	0.000000	-0.027219	0.001180	0.000000	0.027245	-8.187192	0.000000	0.000000	0.000000	0.000000	0.000000	1
94.629947	6.315140	0.000000	-0.021960	-0.006871	0.000000	0.023010	-3.449759	0.000000	0.000000	0.000000	0.000000	0.000000	1
97.738939	6.315140	0.000000	0.003905	0.012787	0.000000	0.013370	1.734882	0.000000	0.000000	0.000000	0.000000	0.000000	1
100.847931	6.315140	0.000000	0.004203	0.012861	0.000000	0.013530	-0.239118	0.000000	0.000000	0.000000	0.000000	0.000000	1
103.956923	6.315140	0.000000	0.007998	-0.001670	0.000000	0.008170	-1.551825	0.000000	0.000000	0.000000	0.000000	0.000000	1
107.065915	6.315140	0.000000	0.004248	-0.000078	0.000000	0.004249	-0.467286	0.000000	0.000000	0.000000	0.000000	0.000000	1
110.174908	6.315140	0.000000	-0.003583	0.002562	0.000000	0.004404	-0.799307	0.000000	0.000000	0.000000	0.000000	0.000000	1
113.283900	6.315140	0.000000	-0.003524	-0.008136	0.000000	0.008866	-1.744518	0.000000	0.000000	0.000000	0.000000	0.000000	1
116.392892	6.315140	0.000000	-0.003829	-0.012906	0.000000	0.013462	0.283284	0.000000	0.000000	0.000000	0.000000	0.000000	1
119.501884	6.315140	0.000000	0.000458	0.002547	0.000000	0.002588	-0.849649	0.000000	0.000000	0.000000	0.000000	0.000000	1
122.610876	6.315140	0.000000	-0.004390	-0.009059	0.000000	0.010066	-2.904446	0.000000	0.000000	0.000000	0.000000	0.000000	1
125.719868	6.315140	0.000000	-0.009516	-0.021179	0.000000	0.023219	3.979123	0.000000	0.000000	0.000000	0.000000	0.000000	1
128.828860	6.315140	0.000000	-0.011493	0.018438	0.000000	0.021727	5.614553	0.000000	0.000000	0.000000	0.000000	0.000000	1
131.937852	6.315140	0.000000	-0.011822	0.017464	0.000000	0.021089	1.159954	0.000000	0.000000	0.000000	0.000000	0.000000	1
135.046844	6.315140	0.000000	-0.008639	0.009207	0.000000	0.012626	0.851445	0.000000	0.000000	0.000000	0.000000	0.000000	1
138.155836	6.315140	0.000000	-0.000998	0.006877	0.000000	0.006949	2.056421	0.000000	0.000000	0.000000	0.000000	0.000000	1
141.264829	6.315140	0.000000	-0.008358	0.011939	0.000000	0.014574	3.228609	0.000000	0.000000	0.000000	0.000000	0.000000	1
144.373821	6.315140	0.000000	-0.016926	0.016080	0.000000	0.023346	2.926600	0.000000	0.000000	0.000000	0.000000	0.000000	1
147.482813	6.315140	0.000000	-0.015738	0.015587	0.000000	0.022150	2.315595	0.000000	0.000000	0.000000	0.000000	0.000000	1
150.591805	6.315140	0.000000	-0.015169	0.015072	0.000000	0.021384	1.116547	0.000000	0.000000	0.000000	0.000000	0.000000	1
153.700797	6.315140	0.000000	-0.011765	0.010877	0.000000	0.016023	-0.611583	0.000000	0.000000	0.000000	0.000000	0.000000	1
156.809789	6.315140	0.000000	-0.003995	0.003370	0.000000	0.005227	-0.846164	0.000000	0.000000	0.000000	0.000000	0.000000	1
159.918781	6.315140	0.000000	-0.001611	0.004448	0.000000	0.004731	-0.165742	0.000000	0.000000	0.000000	0.000000	0.000000	1
4.469176	9.424132	0.000000	0.002464	0.002489	0.000000	0.003502	0.917004	0.000000	0.000000	0.000000	0.000000	0.000000	1
7.578168	9.424132	0.000000	-0.000406	0.008971	0.000000	0.008980	1.675296	0.000000	0.000000	0.000000	0.000000	0.000000	1
10.687160	9.424132	0.000000	0.000707	0.015412	0.000000	0.015428	1.440992	0.000000	0.000000	0.000000	0.000000	0.000000	1
13.796152	9.424132	0.000000	0.001525	0.018114	0.000000	0.018178	-0.747279	0.000000	0.000000	0.000000	0.000000	0.000000	1
16.905145	9.424132	0.000000	0.006784	0.007148	0.000000	0.009855	-0.718338	0.000000	0.000000	0.000000	0.000000	0.000000	1
20.014137	9.424132	0.000000	0.006756	0.007084	0.000000	0.009790	0.016561	0.000000	0.000000	0.000000	0.000000	0.000000	1
23.123129	9.424132	0.000000	0.003506	0.005180	0.000000	0.006255	0.037039	0.000000	0.000000	0.000000	0.000000	0.000000	1
26.232121	9.424132	0.000000	0.004101	0.005368	0.000000	0.006755	0.322797	0.000000	0.000000	0.000000	0.000000	0.000000	1
29.341113	9.424132	0.000000	0.002152	0.005474	0.000000	0.005882	-0.358828	0.000000	0.000000	0.000000	0.000000	0.000000	1
32.450105	9.424132	0.000000	0.010039	0.000517	0.000000	0.010052	0.348655	0.000000	0.000000	0.000000	0.000000	0.000000	1
35.559097	9.424132	0.000000	0.013022	0.004291	0.000000	0.013711	0.889575	0.000000	0.000000	0.000000	0.000000	0.000000	1
38.668089	9.424132	0.000000	0.007111	0.005668	0.000000	0.009094	-0.739558	0.000000	0.000000	0.000000	0.000000	0.000000	1
41.777081	9.424132	0.000000	0.007095	0.000533	0.000000	0.007115	-1.863913	0.000000	0.000000	0.000000	0.000000	0.000000	1
44.886073	9.424132	0.000000	0.009579	-0.001929	0.000000	0.009771	0.810423	0.000000	0.000000	0.000000	0.000000	0.000000	1
47.995066	9.424132	0.000000	0.006925	0.003093	0.000000	0.007584	10.055451	0.000000	0.000000	0.000000	0.000000	0.000000	1
51.104058	9.424132	0.000000	-0.007091	0.018530	0.000000	0.019840	27.489099	0.000000	0.000000	0.000000	0.000000	0.000000	1
54.213050	9.424132	0.000000	-0.006773	0.018814	0.000000	0.019997	72.785402	0.000000	0.000000	0.000000	0.000000	0.000000	1
57.322042	9.424132	0.000000	-0.180118	0.173880	0.000000	0.250354	124.672381	0.000000	0.000000	0.000000	0.000000	0.000000	2
60.431034	9.424132	0.000000	-0.580371	0.532993	0.000000	0.787979	97.307785	0.000000	0.000000	0.000000	0.000000	0.000000	1
63.540026	9.424132	0.000000	-0.606771	0.507741	0.000000	0.791184	46.232980	0.000000	0.000000	0.000000	0.000000	0.000000	1
66.649018	9.424132	0.000000	-0.701768	0.570169	0.000000	0.904196	-4.958050	0.000000	0.000000	0.000000	0.000000	0.000000	1
69.758010	9.424132	0.000000	-0.863939	0.545090	0.000000	1.021525	-75.476194	0.000000	0.000000	0.000000	0.000000	0.000000	2
72.867002	9.424132	0.000000	-0.606040	0.383541	0.000000	0.717209	-110.435330	0.000000	0.000000	0.000000	0.000000	0.000000	1
75.975994	9.424132	0.000000	-0.546124	0.298838	0.000000	0.622539	-112.277276	0.000000	0.000000	0.000000	0.000000	0.000000	1
79.084987	9.424132	0.000000	-0.046603	0.046473	0.000000	0.065814	-74.532786	0.000000	0.000000	0.000000	0.000000	0.000000	2
82.193979	9.424132	0.000000	-0.013755	0.012848	0.000000	0.018823	-24.534680	0.000000	0.000000	0.000000	0.000000	0.000000	1
85.302971	9.424132	0.000000	0.008530	0.007614	0.000000	0.011434	-2.653728	0.000000	0.000000	0.000000	0.000000	0.000000	1
88.411963	9.424132	0.000000	0.011468	0.006503	0.000000	0.013183	-2.139345	0.000000	0.000000	0.000000	0.000000	0.000000	1
91.520955	9.424132	0.000000	0.012262	0.007373	0.000000	0.014308	-1.579201	0.000000	0.000000	0.000000	0.000000	0.000000	1
94.629947	9.424132	0.000000	0.002813	0.011305	0.000000	0.011649	2.106620	0.000000	0.000000	0.000000	0.000000	0.000000	1
97.738939	9.424132	0.000000	0.009647	0.015348	0.000000	0.018128	4.609104	0.000000	0.000000	0.000000	0.000000	0.000000	1
100.847931	9.424132	0.000000	-0.007376	0.031906	0.000000	0.032748	0.874692	0.000000	0.000000	0.000000	0.000000	0.000000	1
103.956923	9.424132	0.000000	-0.012720	0.014247	0.000000	0.019099	-4.636818	0.000000	0.000000	0.000000	0.000000	0.000000	1
107.065915	9.424132	0.000000	-0.004583	-0.016224	0.000000	0.016859	-1.401605	0.000000	0.000000	0.000000	0.000000	0.000000	1
110.174908	9.424132	0.000000	0.001557	-0.014183	0.000000	0.014268	2.187471	0.000000	0.000000	0.000000	0.000000	0.000000	1
113.283900	9.424132	0.000000	0.001537	-0.008199	0.000000	0.008342	-1.086662	0.000000	0.000000	0.000000	0.000000	0.000000	1
116.392892	9.424132	0.000000	0.001325	-0.016772	0.000000	0.016824	-2.785114	0.000000	0.000000	0.000000	0.000000	0.000000	1
119.501884	9.424132	0.000000	0.013364	-0.004137	0.000000	0.013990	-4.375030	0.000000	0.000000	0.000000	0.000000	0.000000	1
122.610876	9.424132	0.000000	0.008955	-0.010292	0.000000	0.013643	-6.395004	0.000000	0.000000	0.000000	0.000000	0.000000	1
125.719868	9.424132	0.000000	-0.012053	-0.014170	0.000000	0.018603	-2.987476	0.000000	0.000000	0.000000	0.000000	0.000000	1
128.828860	9.424132	0.000000	-0.009702	0.006818	0.000000	0.011858	-2.568078	0.000000	0.000000	0.000000	0.000000	0.000000	1
131.937852	9.424132	0.000000	-0.008806	0.008237	0.000000	0.012058	-2.813164	0.000000	0.000000	0.000000	0.000000	0.000000	1
135.046844	9.424132	0.000000	-0.008325	0.011472	0.000000	0.014174	-0.407914	0.000000	0.000000	0.000000	0.000000	0.000000	1
138.155836	9.424132	0.000000	-0.007472	0.007671	0.000000	0.010708	0.656738	0.000000	0.000000	0.000000	0.000000	0.000000	1
141.264829	9.424132	0.000000	-0.015197	0.014890	0.000000	0.021276	0.523504	0.000000	0.000000	0.000000	0.000000	0.000000	1
144.373821	9.424132	0.000000	-0.016632	0.015813	0.000000	0.022949	-0.107830	0.000000	0.000000	0.000000	0.000000	0.000000	1
147.482813	9.424132	0.000000	-0.016973	0.018646	0.000000	0.025214	-0.180929	0.000000	0.000000	0.000000	0.000000	0.000000	1
150.591805	9.424132	0.000000	-0.016646	0.018257	0.000000	0.024706	-1.932029	0.000000	0.000000	0.000000	0.000000	0.000000	1
153.700797	9.424132	0.000000	-0.011775	0.011438	0.000000	0.016416	-3.035880	0.000000	0.000000	0.000000	0.000000	0.000000	1
156.809789	9.424132	0.000000	-0.008089	0.002983	0.000000	0.008621	-1.254010	0.000000	0.000000	0.000000	0.000000	0.000000	1
159.918781	9.424132	0.000000	-0.007076	0.000006	0.000000	0.007076	0.298377	0.000000	0.000000	0.000000	0.000000	0.000000	1
4.469176	12.533124	0.000000	0.002329	0.014510	0.000000	0.014696	-0.194505	0.000000	0.000000	0.000000	0.000000	0.000000	1
7.578168	12.533124	0.000000	-0.002885	0.009007	0.000000	0.009458	0.345771	0.000000	0.000000	0.000000	0.000000	0.000000	1
10.687160	12.533124	0.000000	-0.002985	0.008451	0.000000	0.008962	0.072944	0.000000	0.000000	0.000000	0.000000	0.000000	1
13.796152	12.533124	0.000000	0.000258	0.001756	0.000000	0.001775	-0.347838	0.000000	0.000000	0.000000	0.000000	0.000000	1
16.905145	12.533124	0.000000	0.002766	0.004476	0.000000	0.005262	0.543831	0.000000	0.000000	0.000000	0.000000	0.000000	1
20.014137	12.533124	0.000000	0.006609	0.007008	0.000000	0.009633	0.253143	0.000000	0.000000	0.000000	0.000000	0.000000	1
23.123129	12.533124	0.000000	0.004933	0.004332	0.000000	0.006565	0.134540	0.000000	0.000000	0.000000	0.000000	0.000000	1
26.232121	12.533124	0.000000	0.002316	0.006829	0.000000	0.007211	0.412688	0.000000	0.000000	0.000000	0.000000	0.000000	1
29.341113	12.533124	0.000000	0.002130	0.006383	0.000000	0.006729	-0.348211	0.000000	0.000000	0.000000	0.000000	0.000000	1
32.450105	12.533124	0.000000	0.006224	0.004737	0.000000	0.007821	0.300820	0.000000	0.000000	0.000000	0.000000	0.000000	1
35.559097	12.533124	0.000000	0.009393	0.007094	0.000000	0.011771	-0.022421	0.000000	0.000000	0.000000	0.000000	0.000000	1
38.668089	12.533124	0.000000	0.006983	0.003744	0.000000	0.007924	-1.830838	0.000000	0.000000	0.000000	0.000000	0.000000	1
41.777081	12.533124	0.000000	0.008979	0.003161	0.000000	0.009519	1.127684	0.000000	0.000000	0.000000	0.000000	0.000000	1
44.886073	12.533124	0.000000	0.015047	-0.000377	0.000000	0.015052	15.000347	0.000000	0.000000	0.000000	0.000000	0.000000	1
47.995066	12.533124	0.000000	-0.004505	0.028048	0.000000	0.028407	38.726716	0.000000	0.000000	0.000000	0.000000	0.000000	2
51.104058	12.533124	0.000000	-0.062977	0.114871	0.000000	0.131001	81.538171	0.000000	0.000000	0.000000	0.000000	0.000000	2
54.213050	12.533124	0.000000	-0.237452	0.279411	0.000000	0.366680	118.326756	0.000000	0.000000	0.000000	0.000000	0.000000	1
57.322042	12.533124	0.000000	-0.529247	0.521307	0.000000	0.742875	88.883150	0.000000	0.000000	0.000000	0.000000	0.000000	1
60.431034	12.533124	0.000000	-0.592681	0.556415	0.000000	0.812938	3.843377	0.000000	0.000000	0.000000	0.000000	0.000000	1
63.540026	12.533124	0.000000	-0.607706	0.544026	0.000000	0.815642	-46.311039	0.000000	0.000000	0.000000	0.000000	0.000000	1
66.649018	12.533124	0.000000	-0.601113	0.515221	0.000000	0.791700	-69.098165	0.000000	0.000000	0.000000	0.000000	0.000000	1
69.758010	12.533124	0.000000	-0.546383	0.389796	0.000000	0.671175	-98.203382	0.000000	0.000000	0.000000	0.000000	0.000000	1
72.867002	12.533124	0.000000	-0.381738	0.254599	0.000000	0.458852	-113.581303	0.000000	0.000000	0.000000	0.000000	0.000000	1
75.975994	12.533124	0.000000	-0.170824	0.078032	0.000000	0.187802	-100.460465	0.000000	0.000000	0.000000	0.000000	0.000000	2
79.084987	12.533124	0.000000	-0.014883	0.013009	0.000000	0.019767	-44.684990	0.000000	0.000000	0.000000	0.000000	0.000000	1
82.193979	12.533124	0.000000	-0.002858	0.010105	0.000000	0.010501	-4.654691	0.000000	0.000000	0.000000	0.000000	0.000000	1
85.302971	12.533124	0.000000	0.005899	0.012703	0.000000	0.014006	0.868901	0.000000	0.000000	0.000000	0.000000	0.000000	1
88.411963	12.533124	0.000000	0.001414	0.010799	0.000000	0.010891	0.564660	0.000000	0.000000	0.000000	0.000000	0.000000	1
91.520955	12.533124	0.000000	-0.025729	-0.018069	0.000000	0.031440	3.188942	0.000000	0.000000	0.000000	0.000000	0.000000	1
94.629947	12.533124	0.000000	-0.019073	-0.008014	0.000000	0.020688	7.693092	0.000000	0.000000	0.000000	0.000000	0.000000	1
97.738939	12.533124	0.000000	0.003859	0.013988	0.000000	0.014511	7.377915	0.000000	0.000000	0.000000	0.000000	0.000000	1
100.847931	12.533124	0.000000	-0.003989	0.040292	0.000000	0.040489	-3.050057	0.000000	0.000000	0.000000	0.000000	0.000000	1
103.956923	12.533124	0.000000	-0.005667	0.022309	0.000000	0.023018	-14.465892	0.000000	0.000000	0.000000	0.000000	0.000000	1
107.065915	12.533124	0.000000	-0.004853	-0.010457	0.000000	0.011529	-6.625848	0.000000	0.000000	0.000000	0.000000	0.000000	1
110.174908	12.533124	0.000000	-0.004382	0.007410	0.000000	0.008609	3.610618	0.000000	0.000000	0.000000	0.000000	0.000000	1
113.283900	12.533124	0.000000	-0.008590	0.020191	0.000000	0.021942	0.679125	0.000000	0.000000	0.000000	0.000000	0.000000	1
116.392892	12.533124	0.000000	0.017783	0.011708	0.000000	0.021291	-3.206807	0.000000	0.000000	0.000000	0.000000	0.000000	1
119.501884	12.533124	0.000000	0.033839	0.003652	0.000000	0.034035	-3.764220	0.000000	0.000000	0.000000	0.000000	0.000000	1
122.610876	12.533124	0.000000	0.025372	0.004222	0.000000	0.025720	-1.335439	0.000000	0.000000	0.000000	0.000000	0.000000	1
125.719868	12.533124	0.000000	0.049307	0.040113	0.000000	0.063563	-3.428230	0.000000	0.000000	0.000000	0.000000	0.000000	1
128.828860	12.533124	0.000000	0.013492	0.040590	0.000000	0.042773	-10.613022	0.000000	0.000000	0.000000	0.000000	0.000000	2
131.937852	12.533124	0.000000	-0.006033	0.007362	0.000000	0.009518	-6.698438	0.000000	0.000000	0.000000	0.000000	0.000000	1
135.046844	12.533124	0.000000	-0.007556	0.008189	0.000000	0.011142	0.080242	0.000000	0.000000	0.000000	0.000000	0.000000	1
138.155836	12.533124	0.000000	-0.008010	0.009880	0.000000	0.012719	-0.024702	0.000000	0.000000	0.000000	0.000000	0.000000	1
141.264829	12.533124	0.000000	-0.004677	0.005695	0.000000	0.007369	-0.259038	0.000000	0.000000	0.000000	0.000000	0.000000	1
144.373821	12.533124	0.000000	-0.007216	0.007472	0.000000	0.010388	0.019206	0.000000	0.000000	0.000000	0.000000	0.000000	1
147.482813	12.533124	0.000000	-0.013116	0.017575	0.000000	0.021929	-1.626652	0.000000	0.000000	0.000000	0.000000	0.000000	1
150.591805	12.533124	0.000000	-0.012393	0.016821	0.000000	0.020893	-3.905975	0.000000	0.000000	0.000000	0.000000	0.000000	1
153.700797	12.533124	0.000000	-0.002251	0.006336	0.000000	0.006724	-3.085962	0.000000	0.000000	0.000000	0.000000	0.000000	1
156.809789	12.533124	0.000000	-0.008333	0.001028	0.000000	0.008396	-1.245761	0.000000	0.000000	0.000000	0.000000	0.000000	1
159.918781	12.533124	0.000000	-0.007379	-0.000490	0.000000	0.007395	-0.677246	0.000000	0.000000	0.000000	0.000000	0.000000	1
4.469176	15.642117	0.000000	0.001368	0.008538	0.000000	0.008646	-2.516001	0.000000	0.000000	0.000000	0.000000	0.000000	1
7.578168	15.642117	0.000000	-0.002429	0.007525	0.000000	0.007907	-2.271365	0.000000	0.000000	0.000000	0.000000	0.000000	1
10.687160	15.642117	0.000000	-0.003518	0.006968	0.000000	0.007806	-1.853230	0.000000	0.000000	0.000000	0.000000	0.000000	1
13.796152	15.642117	0.000000	0.000189	0.002889	0.000000	0.002896	-0.583102	0.000000	0.000000	0.000000	0.000000	0.000000	1
16.905145	15.642117	0.000000	0.002172	0.003020	0.000000	0.003720	0.937544	0.000000	0.000000	0.000000	0.000000	0.000000	1
20.014137	15.642117	0.000000	0.004454	0.004079	0.000000	0.006040	1.293463	0.000000	0.000000	0.000000	0.000000	0.000000	1
23.123129	15.642117	0.000000	0.003945	0.002797	0.000000	0.004836	1.499254	0.000000	0.000000	0.000000	0.000000	0.000000	1
26.232121	15.642117	0.000000	0.002506	0.006482	0.000000	0.006950	0.877727	0.000000	0.000000	0.000000	0.000000	0.000000	1
29.341113	15.642117	0.000000	0.002421	0.006184	0.000000	0.006641	-0.950000	0.000000	0.000000	0.000000	0.000000	0.000000	1
32.450105	15.642117	0.000000	0.006075	0.001834	0.000000	0.006346	-1.119108	0.000000	0.000000	0.000000	0.000000	0.000000	1
35.559097	15.642117	0.000000	0.009497	0.002240	0.000000	0.009757	-1.208288	0.000000	0.000000	0.000000	0.000000	0.000000	1
38.668089	15.642117	0.000000	0.017488	-0.002528	0.000000	0.017670	-2.068735	0.000000	0.000000	0.000000	0.000000	0.000000	1
41.777081	15.642117	0.000000	0.017893	-0.003648	0.000000	0.018261	16.438521	0.000000	0.000000	0.000000	0.000000	0.000000	1
44.886073	15.642117	0.000000	-0.013349	0.050403	0.000000	0.052140	50.649122	0.000000	0.000000	0.000000	0.000000	0.000000	1
47.995066	15.642117	0.000000	-0.160289	0.114837	0.000000	0.197180	78.640194	0.000000	0.000000	0.000000	0.000000	0.000000	2
51.104058	15.642117	0.000000	-0.161332	0.251065	0.000000	0.298432	115.660705	0.000000	0.000000	0.000000	0.000000	0.000000	1
54.213050	15.642117	0.000000	-0.568894	0.586591	0.000000	0.817147	89.203206	0.000000	0.000000	0.000000	0.000000	0.000000	1
57.322042	15.642117	0.000000	-0.591855	0.535648	0.000000	0.798254	6.533579	0.000000	0.000000	0.000000	0.000000	0.000000	1
60.431034	15.642117	0.000000	-0.416619	0.507266	0.000000	0.656422	-28.533161	0.000000	0.000000	0.000000	0.000000	0.000000	2
63.540026	15.642117	0.000000	-0.346605	0.427875	0.000000	0.550646	-40.633505	0.000000	0.000000	0.000000	0.000000	0.000000	1
66.649018	15.642117	0.000000	-0.390907	0.395576	0.000000	0.556137	-62.685323	0.000000	0.000000	0.000000	0.000000	0.000000	1
69.758010	15.642117	0.000000	-0.411303	0.314900	0.000000	0.518008	-86.849042	0.000000	0.000000	0.000000	0.000000	0.000000	1
72.867002	15.642117	0.000000	-0.268647	0.214457	0.000000	0.343748	-93.596064	0.000000	0.000000	0.000000	0.000000	0.000000	2
75.975994	15.642117	0.000000	0.008832	0.042064	0.000000	0.042981	-56.426609	0.000000	0.000000	0.000000	0.000000	0.000000	1
79.084987	15.642117	0.000000	0.000707	0.030668	0.000000	0.030676	-14.600463	0.000000	0.000000	0.000000	0.000000	0.000000	1
82.193979	15.642117	0.000000	-0.005500	0.010335	0.000000	0.011707	-2.826792	0.000000	0.000000	0.000000	0.000000	0.000000	1
85.302971	15.642117	0.000000	0.001944	0.011603	0.000000	0.011765	0.366869	0.000000	0.000000	0.000000	0.000000	0.000000	1
88.411963	15.642117	0.000000	-0.018612	0.001909	0.000000	0.018709	-2.370661	0.000000	0.000000	0.000000	0.000000	0.000000	1
91.520955	15.642117	0.000000	-0.025245	-0.016819	0.000000	0.030334	-2.867122	0.000000	0.000000	0.000000	0.000000	0.000000	1
94.629947	15.642117	0.000000	-0.015553	-0.009411	0.000000	0.018178	2.421248	0.000000	0.000000	0.000000	0.000000	0.000000	1
97.738939	15.642117	0.000000	-0.001960	0.016590	0.000000	0.016705	6.151603	0.000000	0.000000	0.000000	0.000000	0.000000	1
100.847931	15.642117	0.000000	0.039074	0.061750	0.000000	0.073075	-1.490871	0.000000	0.000000	0.000000	0.000000	0.000000	1
103.956923	15.642117	0.000000	0.031700	0.050901	0.000000	0.059965	-14.437591	0.000000	0.000000	0.000000	0.000000	0.000000	1
107.065915	15.642117	0.000000	0.007368	-0.001176	0.000000	0.007462	-10.849964	0.000000	0.000000	0.000000	0.000000	0.000000	1
110.174908	15.642117	0.000000	0.001060	0.012158	0.000000	0.012204	-2.490500	0.000000	0.000000	0.000000	0.000000	0.000000	1
113.283900	15.642117	0.000000	-0.008302	0.020425	0.000000	0.022048	-5.122614	0.000000	0.000000	0.000000	0.000000	0.000000	1
116.392892	15.642117	0.000000	0.017818	0.019359	0.000000	0.026310	-5.879338	0.000000	0.000000	0.000000	0.000000	0.000000	1
119.501884	15.642117	0.000000	0.039166	0.018632	0.000000	0.043372	-2.480194	0.000000	0.000000	0.000000	0.000000	0.000000	1