TITLE = "PIV Result  491 "
VARIABLES = "X (mm)""Y (mm)""Z (mm)""U (m/s)""V (m/s)""W (m/s)""Speed (m/s)""Vorticity""U-std""V-std""W-std""Speed-std""Vorticity-std""Flag"
ZONE T="ZONE 491 "
I= 51 , J= 16 , K= 1 , F=POINT
DT=(DOUBLE DOUBLE DOUBLE DOUBLE DOUBLE DOUBLE DOUBLE DOUBLE DOUBLE DOUBLE DOUBLE DOUBLE DOUBLE DOUBLE)
4.469176	3.206148	0.000000	0.006269	0.016695	0.000000	0.017833	-4.491488	0.000000	0.000000	0.000000	0.000000	0.000000	2
7.578168	3.206148	0.000000	-0.003043	0.009892	0.000000	0.010349	-2.438364	0.000000	0.000000	0.000000	0.000000	0.000000	1
10.687160	3.206148	0.000000	-0.001394	0.008035	0.000000	0.008155	-0.305113	0.000000	0.000000	0.000000	0.000000	0.000000	1
13.796152	3.206148	0.000000	-0.001304	0.008951	0.000000	0.009045	-0.946935	0.000000	0.000000	0.000000	0.000000	0.000000	1
16.905145	3.206148	0.000000	-0.007092	0.016653	0.000000	0.018100	-2.742521	0.000000	0.000000	0.000000	0.000000	0.000000	1
20.014137	3.206148	0.000000	0.002041	0.003661	0.000000	0.004192	-1.260657	0.000000	0.000000	0.000000	0.000000	0.000000	1
23.123129	3.206148	0.000000	0.004333	0.008321	0.000000	0.009381	3.188036	0.000000	0.000000	0.000000	0.000000	0.000000	1
26.232121	3.206148	0.000000	-0.000800	0.024160	0.000000	0.024173	2.556592	0.000000	0.000000	0.000000	0.000000	0.000000	1
29.341113	3.206148	0.000000	-0.003191	0.023455	0.000000	0.023671	-3.062032	0.000000	0.000000	0.000000	0.000000	0.000000	1
32.450105	3.206148	0.000000	0.001707	0.005636	0.000000	0.005889	-3.096817	0.000000	0.000000	0.000000	0.000000	0.000000	1
35.559097	3.206148	0.000000	-0.000687	0.000638	0.000000	0.000937	-1.645381	0.000000	0.000000	0.000000	0.000000	0.000000	1
38.668089	3.206148	0.000000	-0.000659	0.000137	0.000000	0.000673	-1.723288	0.000000	0.000000	0.000000	0.000000	0.000000	1
41.777081	3.206148	0.000000	0.000332	0.000084	0.000000	0.000342	-0.223627	0.000000	0.000000	0.000000	0.000000	0.000000	1
44.886073	3.206148	0.000000	0.000842	0.000344	0.000000	0.000909	-0.027154	0.000000	0.000000	0.000000	0.000000	0.000000	1
47.995066	3.206148	0.000000	0.003185	-0.000248	0.000000	0.003195	0.581712	0.000000	0.000000	0.000000	0.000000	0.000000	1
51.104058	3.206148	0.000000	0.001346	-0.001085	0.000000	0.001729	1.046737	0.000000	0.000000	0.000000	0.000000	0.000000	1
54.213050	3.206148	0.000000	0.002844	-0.000080	0.000000	0.002845	2.320085	0.000000	0.000000	0.000000	0.000000	0.000000	1
57.322042	3.206148	0.000000	0.001918	0.001498	0.000000	0.002433	4.951670	0.000000	0.000000	0.000000	0.000000	0.000000	1
60.431034	3.206148	0.000000	-0.015352	0.003216	0.000000	0.015686	4.824100	0.000000	0.000000	0.000000	0.000000	0.000000	1
63.540026	3.206148	0.000000	-0.017455	0.003322	0.000000	0.017768	1.952707	0.000000	0.000000	0.000000	0.000000	0.000000	1
66.649018	3.206148	0.000000	-0.001044	0.000408	0.000000	0.001121	2.611071	0.000000	0.000000	0.000000	0.000000	0.000000	1
69.758010	3.206148	0.000000	-0.000145	0.000071	0.000000	0.000161	83.417144	0.000000	0.000000	0.000000	0.000000	0.000000	1
72.867002	3.206148	0.000000	-0.007621	0.556645	0.000000	0.556697	186.403412	0.000000	0.000000	0.000000	0.000000	0.000000	2
75.975994	3.206148	0.000000	-0.179451	1.197368	0.000000	1.210741	74.104573	0.000000	0.000000	0.000000	0.000000	0.000000	1
79.084987	3.206148	0.000000	-0.311412	0.873726	0.000000	0.927564	-88.887506	0.000000	0.000000	0.000000	0.000000	0.000000	1
82.193979	3.206148	0.000000	-0.316087	0.443348	0.000000	0.544490	-103.826246	0.000000	0.000000	0.000000	0.000000	0.000000	2
85.302971	3.206148	0.000000	-0.285528	0.267960	0.000000	0.391573	-59.141896	0.000000	0.000000	0.000000	0.000000	0.000000	2
88.411963	3.206148	0.000000	-0.134622	0.184336	0.000000	0.228260	-30.731863	0.000000	0.000000	0.000000	0.000000	0.000000	2
91.520955	3.206148	0.000000	-0.027527	0.068677	0.000000	0.073988	-17.259793	0.000000	0.000000	0.000000	0.000000	0.000000	2
94.629947	3.206148	0.000000	0.020523	0.050344	0.000000	0.054366	-0.045245	0.000000	0.000000	0.000000	0.000000	0.000000	2
97.738939	3.206148	0.000000	0.015187	0.041177	0.000000	0.043889	-5.604002	0.000000	0.000000	0.000000	0.000000	0.000000	2
100.847931	3.206148	0.000000	0.007356	0.046089	0.000000	0.046672	-9.161539	0.000000	0.000000	0.000000	0.000000	0.000000	2
103.956923	3.206148	0.000000	0.008502	0.040331	0.000000	0.041218	-6.002025	0.000000	0.000000	0.000000	0.000000	0.000000	2
107.065915	3.206148	0.000000	-0.002341	0.037453	0.000000	0.037526	-4.090799	0.000000	0.000000	0.000000	0.000000	0.000000	2
110.174908	3.206148	0.000000	-0.003840	-0.000768	0.000000	0.003916	-5.275649	0.000000	0.000000	0.000000	0.000000	0.000000	1
113.283900	3.206148	0.000000	0.004245	0.000208	0.000000	0.004250	-1.012133	0.000000	0.000000	0.000000	0.000000	0.000000	1
116.392892	3.206148	0.000000	0.003173	0.000988	0.000000	0.003323	3.332458	0.000000	0.000000	0.000000	0.000000	0.000000	1
119.501884	3.206148	0.000000	0.000057	0.000257	0.000000	0.000263	2.484246	0.000000	0.000000	0.000000	0.000000	0.000000	1
122.610876	3.206148	0.000000	-0.001168	0.000240	0.000000	0.001192	2.481376	0.000000	0.000000	0.000000	0.000000	0.000000	1
125.719868	3.206148	0.000000	0.000010	-0.000434	0.000000	0.000434	2.678161	0.000000	0.000000	0.000000	0.000000	0.000000	1
128.828860	3.206148	0.000000	-0.000263	-0.000285	0.000000	0.000388	3.137657	0.000000	0.000000	0.000000	0.000000	0.000000	1
131.937852	3.206148	0.000000	-0.000235	0.000042	0.000000	0.000239	3.039699	0.000000	0.000000	0.000000	0.000000	0.000000	1
135.046844	3.206148	0.000000	-0.006979	0.010954	0.000000	0.012988	0.522507	0.000000	0.000000	0.000000	0.000000	0.000000	1
138.155836	3.206148	0.000000	-0.006774	0.011165	0.000000	0.013059	-1.369121	0.000000	0.000000	0.000000	0.000000	0.000000	1
141.264829	3.206148	0.000000	0.001863	0.004038	0.000000	0.004447	-0.004938	0.000000	0.000000	0.000000	0.000000	0.000000	1
144.373821	3.206148	0.000000	-0.003131	0.003915	0.000000	0.005013	1.327477	0.000000	0.000000	0.000000	0.000000	0.000000	1
147.482813	3.206148	0.000000	-0.006658	0.006708	0.000000	0.009451	0.892249	0.000000	0.000000	0.000000	0.000000	0.000000	1
150.591805	3.206148	0.000000	-0.008472	0.007567	0.000000	0.011359	-0.473955	0.000000	0.000000	0.000000	0.000000	0.000000	1
153.700797	3.206148	0.000000	-0.007254	0.006188	0.000000	0.009534	-0.709227	0.000000	0.000000	0.000000	0.000000	0.000000	1
156.809789	3.206148	0.000000	-0.005971	0.004855	0.000000	0.007696	-0.885109	0.000000	0.000000	0.000000	0.000000	0.000000	1
159.918781	3.206148	0.000000	-0.004722	0.001993	0.000000	0.005126	-1.430856	0.000000	0.000000	0.000000	0.000000	0.000000	1
4.469176	6.315140	0.000000	0.011101	0.024466	0.000000	0.026867	-4.181178	0.000000	0.000000	0.000000	0.000000	0.000000	1
7.578168	6.315140	0.000000	-0.000800	0.010417	0.000000	0.010447	-2.996301	0.000000	0.000000	0.000000	0.000000	0.000000	1
10.687160	6.315140	0.000000	-0.002543	0.010972	0.000000	0.011263	-1.556576	0.000000	0.000000	0.000000	0.000000	0.000000	1
13.796152	6.315140	0.000000	0.001190	0.010003	0.000000	0.010074	-1.461869	0.000000	0.000000	0.000000	0.000000	0.000000	1
16.905145	6.315140	0.000000	0.002260	0.003770	0.000000	0.004396	-1.940727	0.000000	0.000000	0.000000	0.000000	0.000000	1
20.014137	6.315140	0.000000	0.001865	0.002209	0.000000	0.002891	-0.573525	0.000000	0.000000	0.000000	0.000000	0.000000	1
23.123129	6.315140	0.000000	0.004842	0.005934	0.000000	0.007659	2.664712	0.000000	0.000000	0.000000	0.000000	0.000000	1
26.232121	6.315140	0.000000	0.000363	0.023362	0.000000	0.023365	1.653230	0.000000	0.000000	0.000000	0.000000	0.000000	1
29.341113	6.315140	0.000000	-0.002808	0.025812	0.000000	0.025964	-3.386897	0.000000	0.000000	0.000000	0.000000	0.000000	1
32.450105	6.315140	0.000000	0.002156	0.006183	0.000000	0.006548	-2.973447	0.000000	0.000000	0.000000	0.000000	0.000000	1
35.559097	6.315140	0.000000	0.004592	0.016675	0.000000	0.017295	-2.021152	0.000000	0.000000	0.000000	0.000000	0.000000	1
38.668089	6.315140	0.000000	-0.001344	0.001541	0.000000	0.002045	-2.377944	0.000000	0.000000	0.000000	0.000000	0.000000	1
41.777081	6.315140	0.000000	0.001296	0.000670	0.000000	0.001459	-0.563420	0.000000	0.000000	0.000000	0.000000	0.000000	1
44.886073	6.315140	0.000000	0.001867	0.000821	0.000000	0.002039	-0.024841	0.000000	0.000000	0.000000	0.000000	0.000000	1
47.995066	6.315140	0.000000	-0.000701	-0.000207	0.000000	0.000731	0.694936	0.000000	0.000000	0.000000	0.000000	0.000000	1
51.104058	6.315140	0.000000	-0.001600	-0.000209	0.000000	0.001614	1.373713	0.000000	0.000000	0.000000	0.000000	0.000000	1
54.213050	6.315140	0.000000	0.000447	0.000466	0.000000	0.000646	2.246833	0.000000	0.000000	0.000000	0.000000	0.000000	1
57.322042	6.315140	0.000000	-0.008381	0.008022	0.000000	0.011601	2.952472	0.000000	0.000000	0.000000	0.000000	0.000000	1
60.431034	6.315140	0.000000	-0.028310	0.022798	0.000000	0.036348	1.633613	0.000000	0.000000	0.000000	0.000000	0.000000	1
63.540026	6.315140	0.000000	-0.028898	0.018534	0.000000	0.034331	-0.973414	0.000000	0.000000	0.000000	0.000000	0.000000	1
66.649018	6.315140	0.000000	-0.020201	-0.005111	0.000000	0.020838	0.279950	0.000000	0.000000	0.000000	0.000000	0.000000	1
69.758010	6.315140	0.000000	-0.015097	-0.010454	0.000000	0.018363	93.298727	0.000000	0.000000	0.000000	0.000000	0.000000	1
72.867002	6.315140	0.000000	-0.074631	0.359955	0.000000	0.367611	180.020261	0.000000	0.000000	0.000000	0.000000	0.000000	2
75.975994	6.315140	0.000000	-0.189914	0.950926	0.000000	0.969705	82.726723	0.000000	0.000000	0.000000	0.000000	0.000000	1
79.084987	6.315140	0.000000	-0.264644	0.923271	0.000000	0.960451	-52.243452	0.000000	0.000000	0.000000	0.000000	0.000000	1
82.193979	6.315140	0.000000	-0.375333	0.623369	0.000000	0.727643	-94.777633	0.000000	0.000000	0.000000	0.000000	0.000000	1
85.302971	6.315140	0.000000	-0.188331	0.263328	0.000000	0.323744	-69.892800	0.000000	0.000000	0.000000	0.000000	0.000000	1
88.411963	6.315140	0.000000	-0.144071	0.272593	0.000000	0.308323	-47.065893	0.000000	0.000000	0.000000	0.000000	0.000000	2
91.520955	6.315140	0.000000	-0.080912	0.105344	0.000000	0.132831	-31.242793	0.000000	0.000000	0.000000	0.000000	0.000000	1
94.629947	6.315140	0.000000	0.025858	0.081058	0.000000	0.085083	-5.214361	0.000000	0.000000	0.000000	0.000000	0.000000	2
97.738939	6.315140	0.000000	0.025487	0.099867	0.000000	0.103068	-3.533677	0.000000	0.000000	0.000000	0.000000	0.000000	2
100.847931	6.315140	0.000000	0.030081	0.064283	0.000000	0.070973	-7.719819	0.000000	0.000000	0.000000	0.000000	0.000000	1
103.956923	6.315140	0.000000	0.016972	0.051000	0.000000	0.053750	-7.576988	0.000000	0.000000	0.000000	0.000000	0.000000	1
107.065915	6.315140	0.000000	-0.005710	0.034574	0.000000	0.035043	-13.693019	0.000000	0.000000	0.000000	0.000000	0.000000	1
110.174908	6.315140	0.000000	0.001435	0.048235	0.000000	0.048256	-28.095770	0.000000	0.000000	0.000000	0.000000	0.000000	1
113.283900	6.315140	0.000000	-0.010534	-0.001384	0.000000	0.010625	-23.301896	0.000000	0.000000	0.000000	0.000000	0.000000	1
116.392892	6.315140	0.000000	-0.006673	-0.000236	0.000000	0.006678	-3.382354	0.000000	0.000000	0.000000	0.000000	0.000000	1
119.501884	6.315140	0.000000	-0.006891	-0.001411	0.000000	0.007034	2.137414	0.000000	0.000000	0.000000	0.000000	0.000000	1
122.610876	6.315140	0.000000	-0.010308	-0.001476	0.000000	0.010413	1.281858	0.000000	0.000000	0.000000	0.000000	0.000000	1
125.719868	6.315140	0.000000	-0.009457	-0.004557	0.000000	0.010498	1.016267	0.000000	0.000000	0.000000	0.000000	0.000000	1
128.828860	6.315140	0.000000	-0.007342	-0.002799	0.000000	0.007858	2.564044	0.000000	0.000000	0.000000	0.000000	0.000000	1
131.937852	6.315140	0.000000	-0.005868	0.004729	0.000000	0.007537	3.202727	0.000000	0.000000	0.000000	0.000000	0.000000	1
135.046844	6.315140	0.000000	-0.003666	0.008732	0.000000	0.009470	1.058339	0.000000	0.000000	0.000000	0.000000	0.000000	1
138.155836	6.315140	0.000000	-0.003555	0.004317	0.000000	0.005592	-0.687232	0.000000	0.000000	0.000000	0.000000	0.000000	1
141.264829	6.315140	0.000000	-0.003977	0.002533	0.000000	0.004715	-0.129852	0.000000	0.000000	0.000000	0.000000	0.000000	1
144.373821	6.315140	0.000000	-0.004674	0.001501	0.000000	0.004909	0.728563	0.000000	0.000000	0.000000	0.000000	0.000000	1
147.482813	6.315140	0.000000	-0.007375	0.006728	0.000000	0.009983	-0.057596	0.000000	0.000000	0.000000	0.000000	0.000000	1
150.591805	6.315140	0.000000	-0.008533	0.005906	0.000000	0.010378	-1.398219	0.000000	0.000000	0.000000	0.000000	0.000000	1
153.700797	6.315140	0.000000	-0.008398	-0.000631	0.000000	0.008422	-0.911773	0.000000	0.000000	0.000000	0.000000	0.000000	1
156.809789	6.315140	0.000000	-0.002072	0.001347	0.000000	0.002471	-0.545325	0.000000	0.000000	0.000000	0.000000	0.000000	1
159.918781	6.315140	0.000000	-0.002241	0.001693	0.000000	0.002808	-1.026068	0.000000	0.000000	0.000000	0.000000	0.000000	1
4.469176	9.424132	0.000000	0.011765	0.010544	0.000000	0.015799	-1.264227	0.000000	0.000000	0.000000	0.000000	0.000000	1
7.578168	9.424132	0.000000	0.010048	0.012037	0.000000	0.015679	-1.433083	0.000000	0.000000	0.000000	0.000000	0.000000	1
10.687160	9.424132	0.000000	0.007534	0.012274	0.000000	0.014402	-1.302416	0.000000	0.000000	0.000000	0.000000	0.000000	1
13.796152	9.424132	0.000000	0.003840	0.011181	0.000000	0.011822	-1.626349	0.000000	0.000000	0.000000	0.000000	0.000000	1
16.905145	9.424132	0.000000	0.001623	0.009632	0.000000	0.009768	-2.475872	0.000000	0.000000	0.000000	0.000000	0.000000	1
20.014137	9.424132	0.000000	0.001390	0.005710	0.000000	0.005877	-1.158551	0.000000	0.000000	0.000000	0.000000	0.000000	1
23.123129	9.424132	0.000000	0.003017	0.005469	0.000000	0.006246	1.759101	0.000000	0.000000	0.000000	0.000000	0.000000	1
26.232121	9.424132	0.000000	0.005734	0.012435	0.000000	0.013693	1.420198	0.000000	0.000000	0.000000	0.000000	0.000000	1
29.341113	9.424132	0.000000	0.005113	0.011754	0.000000	0.012818	-1.243723	0.000000	0.000000	0.000000	0.000000	0.000000	1
32.450105	9.424132	0.000000	0.009867	0.012378	0.000000	0.015829	-0.793225	0.000000	0.000000	0.000000	0.000000	0.000000	1
35.559097	9.424132	0.000000	0.010750	0.014950	0.000000	0.018414	-0.809356	0.000000	0.000000	0.000000	0.000000	0.000000	1
38.668089	9.424132	0.000000	0.001644	0.010228	0.000000	0.010359	-1.527515	0.000000	0.000000	0.000000	0.000000	0.000000	1
41.777081	9.424132	0.000000	0.001075	0.005154	0.000000	0.005265	0.110996	0.000000	0.000000	0.000000	0.000000	0.000000	1
44.886073	9.424132	0.000000	0.002972	0.003368	0.000000	0.004492	1.246995	0.000000	0.000000	0.000000	0.000000	0.000000	1
47.995066	9.424132	0.000000	-0.004612	0.003831	0.000000	0.005996	2.286597	0.000000	0.000000	0.000000	0.000000	0.000000	1
51.104058	9.424132	0.000000	-0.006853	0.002480	0.000000	0.007288	2.206043	0.000000	0.000000	0.000000	0.000000	0.000000	1
54.213050	9.424132	0.000000	-0.007371	0.002073	0.000000	0.007657	1.040558	0.000000	0.000000	0.000000	0.000000	0.000000	1
57.322042	9.424132	0.000000	-0.007291	0.001480	0.000000	0.007440	-0.144518	0.000000	0.000000	0.000000	0.000000	0.000000	1
60.431034	9.424132	0.000000	-0.019816	-0.005548	0.000000	0.020578	-1.119018	0.000000	0.000000	0.000000	0.000000	0.000000	1
63.540026	9.424132	0.000000	-0.023302	-0.004720	0.000000	0.023775	-2.095031	0.000000	0.000000	0.000000	0.000000	0.000000	1
66.649018	9.424132	0.000000	-0.023412	-0.009659	0.000000	0.025326	-0.542382	0.000000	0.000000	0.000000	0.000000	0.000000	1
69.758010	9.424132	0.000000	-0.029345	-0.016314	0.000000	0.033575	105.870734	0.000000	0.000000	0.000000	0.000000	0.000000	1
72.867002	9.424132	0.000000	-0.175641	0.775709	0.000000	0.795345	156.460520	0.000000	0.000000	0.000000	0.000000	0.000000	2
75.975994	9.424132	0.000000	-0.321021	0.834282	0.000000	0.893914	63.430448	0.000000	0.000000	0.000000	0.000000	0.000000	1
79.084987	9.424132	0.000000	-0.326970	0.922857	0.000000	0.979069	-32.425981	0.000000	0.000000	0.000000	0.000000	0.000000	1
82.193979	9.424132	0.000000	-0.246315	0.841103	0.000000	0.876428	-93.056009	0.000000	0.000000	0.000000	0.000000	0.000000	2
85.302971	9.424132	0.000000	-0.191624	0.709091	0.000000	0.734527	-89.912510	0.000000	0.000000	0.000000	0.000000	0.000000	2
88.411963	9.424132	0.000000	-0.125271	0.330227	0.000000	0.353189	-84.790629	0.000000	0.000000	0.000000	0.000000	0.000000	2
91.520955	9.424132	0.000000	-0.043095	0.150758	0.000000	0.156797	-62.682069	0.000000	0.000000	0.000000	0.000000	0.000000	2
94.629947	9.424132	0.000000	0.046720	0.074630	0.000000	0.088048	-25.514117	0.000000	0.000000	0.000000	0.000000	0.000000	1
97.738939	9.424132	0.000000	0.034220	0.115379	0.000000	0.120347	-13.598054	0.000000	0.000000	0.000000	0.000000	0.000000	2
100.847931	9.424132	0.000000	0.018989	0.100442	0.000000	0.102221	-9.692712	0.000000	0.000000	0.000000	0.000000	0.000000	2
103.956923	9.424132	0.000000	0.016823	0.072570	0.000000	0.074495	-14.235506	0.000000	0.000000	0.000000	0.000000	0.000000	2
107.065915	9.424132	0.000000	0.047315	0.057971	0.000000	0.074828	-33.135873	0.000000	0.000000	0.000000	0.000000	0.000000	2
110.174908	9.424132	0.000000	0.204127	0.094228	0.000000	0.224826	-53.518971	0.000000	0.000000	0.000000	0.000000	0.000000	2
113.283900	9.424132	0.000000	0.110602	0.040283	0.000000	0.117709	-52.970212	0.000000	0.000000	0.000000	0.000000	0.000000	2
116.392892	9.424132	0.000000	-0.028368	-0.001010	0.000000	0.028386	-25.908383	0.000000	0.000000	0.000000	0.000000	0.000000	2
119.501884	9.424132	0.000000	-0.005992	-0.006613	0.000000	0.008924	-4.594070	0.000000	0.000000	0.000000	0.000000	0.000000	1
122.610876	9.424132	0.000000	-0.009729	0.003179	0.000000	0.010235	-0.271167	0.000000	0.000000	0.000000	0.000000	0.000000	1
125.719868	9.424132	0.000000	-0.008427	0.000644	0.000000	0.008452	-0.629255	0.000000	0.000000	0.000000	0.000000	0.000000	1
128.828860	9.424132	0.000000	-0.007967	-0.001512	0.000000	0.008109	1.916370	0.000000	0.000000	0.000000	0.000000	0.000000	1
131.937852	9.424132	0.000000	-0.013818	0.007941	0.000000	0.015937	2.720188	0.000000	0.000000	0.000000	0.000000	0.000000	1
135.046844	9.424132	0.000000	-0.008453	0.007502	0.000000	0.011302	0.912853	0.000000	0.000000	0.000000	0.000000	0.000000	1
138.155836	9.424132	0.000000	-0.007422	0.006788	0.000000	0.010058	-0.634388	0.000000	0.000000	0.000000	0.000000	0.000000	1
141.264829	9.424132	0.000000	-0.004611	0.000479	0.000000	0.004636	-0.744053	0.000000	0.000000	0.000000	0.000000	0.000000	1
144.373821	9.424132	0.000000	-0.004660	0.001314	0.000000	0.004842	0.199144	0.000000	0.000000	0.000000	0.000000	0.000000	1
147.482813	9.424132	0.000000	-0.001646	0.003019	0.000000	0.003439	-0.302242	0.000000	0.000000	0.000000	0.000000	0.000000	1
150.591805	9.424132	0.000000	-0.003437	0.000949	0.000000	0.003566	-1.113081	0.000000	0.000000	0.000000	0.000000	0.000000	1
153.700797	9.424132	0.000000	-0.003905	0.001910	0.000000	0.004347	-0.382624	0.000000	0.000000	0.000000	0.000000	0.000000	1
156.809789	9.424132	0.000000	-0.003027	0.004777	0.000000	0.005655	-0.419015	0.000000	0.000000	0.000000	0.000000	0.000000	1
159.918781	9.424132	0.000000	0.000650	0.002504	0.000000	0.002587	-1.228887	0.000000	0.000000	0.000000	0.000000	0.000000	1
4.469176	12.533124	0.000000	0.011247	0.012600	0.000000	0.016890	0.520290	0.000000	0.000000	0.000000	0.000000	0.000000	1
7.578168	12.533124	0.000000	0.006009	0.014898	0.000000	0.016065	0.506705	0.000000	0.000000	0.000000	0.000000	0.000000	1
10.687160	12.533124	0.000000	0.007930	0.011229	0.000000	0.013747	1.219728	0.000000	0.000000	0.000000	0.000000	0.000000	1
13.796152	12.533124	0.000000	0.012476	0.023671	0.000000	0.026757	0.257856	0.000000	0.000000	0.000000	0.000000	0.000000	1
16.905145	12.533124	0.000000	0.010710	0.024758	0.000000	0.026975	-3.037580	0.000000	0.000000	0.000000	0.000000	0.000000	1
20.014137	12.533124	0.000000	0.001218	0.008364	0.000000	0.008452	-2.856308	0.000000	0.000000	0.000000	0.000000	0.000000	1
23.123129	12.533124	0.000000	0.000843	0.005263	0.000000	0.005330	0.680541	0.000000	0.000000	0.000000	0.000000	0.000000	1
26.232121	12.533124	0.000000	0.001991	0.010498	0.000000	0.010685	1.015148	0.000000	0.000000	0.000000	0.000000	0.000000	1
29.341113	12.533124	0.000000	0.000914	0.011116	0.000000	0.011153	-0.505684	0.000000	0.000000	0.000000	0.000000	0.000000	1
32.450105	12.533124	0.000000	0.009605	0.013377	0.000000	0.016468	0.145675	0.000000	0.000000	0.000000	0.000000	0.000000	1
35.559097	12.533124	0.000000	0.004160	0.012321	0.000000	0.013004	0.515137	0.000000	0.000000	0.000000	0.000000	0.000000	1
38.668089	12.533124	0.000000	0.000344	0.010462	0.000000	0.010468	-0.457780	0.000000	0.000000	0.000000	0.000000	0.000000	1
41.777081	12.533124	0.000000	-0.003333	0.008240	0.000000	0.008889	-0.331589	0.000000	0.000000	0.000000	0.000000	0.000000	1
44.886073	12.533124	0.000000	-0.007384	0.010844	0.000000	0.013119	0.695354	0.000000	0.000000	0.000000	0.000000	0.000000	1
47.995066	12.533124	0.000000	-0.008024	0.012325	0.000000	0.014707	2.160859	0.000000	0.000000	0.000000	0.000000	0.000000	1
51.104058	12.533124	0.000000	-0.019354	0.028872	0.000000	0.034758	2.026556	0.000000	0.000000	0.000000	0.000000	0.000000	2
54.213050	12.533124	0.000000	-0.014730	0.012028	0.000000	0.019017	1.221014	0.000000	0.000000	0.000000	0.000000	0.000000	2
57.322042	12.533124	0.000000	-0.004059	0.004734	0.000000	0.006236	1.134033	0.000000	0.000000	0.000000	0.000000	0.000000	1
60.431034	12.533124	0.000000	-0.021054	0.002068	0.000000	0.021155	0.543159	0.000000	0.000000	0.000000	0.000000	0.000000	1
63.540026	12.533124	0.000000	-0.022132	0.004390	0.000000	0.022563	-0.610654	0.000000	0.000000	0.000000	0.000000	0.000000	1
66.649018	12.533124	0.000000	-0.027727	-0.000647	0.000000	0.027735	0.258407	0.000000	0.000000	0.000000	0.000000	0.000000	1
69.758010	12.533124	0.000000	-0.045567	0.004319	0.000000	0.045772	76.326228	0.000000	0.000000	0.000000	0.000000	0.000000	1
72.867002	12.533124	0.000000	-0.129742	0.573190	0.000000	0.587691	129.229327	0.000000	0.000000	0.000000	0.000000	0.000000	2
75.975994	12.533124	0.000000	-0.181702	1.100753	0.000000	1.115649	60.481722	0.000000	0.000000	0.000000	0.000000	0.000000	2
79.084987	12.533124	0.000000	-0.205083	1.314094	0.000000	1.330001	-59.492114	0.000000	0.000000	0.000000	0.000000	0.000000	1
82.193979	12.533124	0.000000	-0.187029	0.923806	0.000000	0.942548	-115.470949	0.000000	0.000000	0.000000	0.000000	0.000000	2
85.302971	12.533124	0.000000	-0.122483	0.589097	0.000000	0.601696	-92.297277	0.000000	0.000000	0.000000	0.000000	0.000000	1
88.411963	12.533124	0.000000	-0.039004	0.485098	0.000000	0.486664	-100.164201	0.000000	0.000000	0.000000	0.000000	0.000000	2
91.520955	12.533124	0.000000	0.093081	0.204810	0.000000	0.224969	-77.313939	0.000000	0.000000	0.000000	0.000000	0.000000	2
94.629947	12.533124	0.000000	0.163907	0.219901	0.000000	0.274266	-37.655303	0.000000	0.000000	0.000000	0.000000	0.000000	2
97.738939	12.533124	0.000000	0.086746	0.157807	0.000000	0.180077	-39.343013	0.000000	0.000000	0.000000	0.000000	0.000000	2
100.847931	12.533124	0.000000	0.008752	0.086079	0.000000	0.086523	-38.195853	0.000000	0.000000	0.000000	0.000000	0.000000	1
103.956923	12.533124	0.000000	0.014507	0.067349	0.000000	0.068894	-32.492278	0.000000	0.000000	0.000000	0.000000	0.000000	1
107.065915	12.533124	0.000000	0.280105	0.106220	0.000000	0.299569	-32.801039	0.000000	0.000000	0.000000	0.000000	0.000000	2
110.174908	12.533124	0.000000	0.323990	0.094364	0.000000	0.337452	-37.248703	0.000000	0.000000	0.000000	0.000000	0.000000	2
113.283900	12.533124	0.000000	0.284962	0.072850	0.000000	0.294126	-47.384667	0.000000	0.000000	0.000000	0.000000	0.000000	1
116.392892	12.533124	0.000000	0.081284	0.017340	0.000000	0.083113	-41.806513	0.000000	0.000000	0.000000	0.000000	0.000000	2
119.501884	12.533124	0.000000	0.000491	0.001069	0.000000	0.001177	-15.232642	0.000000	0.000000	0.000000	0.000000	0.000000	1
122.610876	12.533124	0.000000	-0.004564	0.004403	0.000000	0.006342	-1.260577	0.000000	0.000000	0.000000	0.000000	0.000000	1
125.719868	12.533124	0.000000	-0.008756	0.002529	0.000000	0.009114	-0.783305	0.000000	0.000000	0.000000	0.000000	0.000000	1
128.828860	12.533124	0.000000	-0.010859	0.003088	0.000000	0.011290	0.935792	0.000000	0.000000	0.000000	0.000000	0.000000	1
131.937852	12.533124	0.000000	-0.018524	0.007324	0.000000	0.019919	0.979737	0.000000	0.000000	0.000000	0.000000	0.000000	1
135.046844	12.533124	0.000000	-0.008981	0.007043	0.000000	0.011413	-0.252570	0.000000	0.000000	0.000000	0.000000	0.000000	1
138.155836	12.533124	0.000000	-0.007314	0.005702	0.000000	0.009274	-1.194539	0.000000	0.000000	0.000000	0.000000	0.000000	1
141.264829	12.533124	0.000000	-0.003604	-0.000952	0.000000	0.003728	-0.463141	0.000000	0.000000	0.000000	0.000000	0.000000	1
144.373821	12.533124	0.000000	-0.004175	-0.001554	0.000000	0.004454	0.906833	0.000000	0.000000	0.000000	0.000000	0.000000	1
147.482813	12.533124	0.000000	-0.003253	0.000220	0.000000	0.003260	0.865000	0.000000	0.000000	0.000000	0.000000	0.000000	1
150.591805	12.533124	0.000000	-0.002558	0.001973	0.000000	0.003231	0.540780	0.000000	0.000000	0.000000	0.000000	0.000000	1
153.700797	12.533124	0.000000	-0.003038	0.003545	0.000000	0.004669	0.278875	0.000000	0.000000	0.000000	0.000000	0.000000	1
156.809789	12.533124	0.000000	-0.003590	0.004536	0.000000	0.005785	-0.576095	0.000000	0.000000	0.000000	0.000000	0.000000	1
159.918781	12.533124	0.000000	0.004522	-0.001302	0.000000	0.004706	-1.379430	0.000000	0.000000	0.000000	0.000000	0.000000	1
4.469176	15.642117	0.000000	0.008165	0.007885	0.000000	0.011351	-0.995995	0.000000	0.000000	0.000000	0.000000	0.000000	1
7.578168	15.642117	0.000000	0.006377	0.000996	0.000000	0.006455	0.616793	0.000000	0.000000	0.000000	0.000000	0.000000	1
10.687160	15.642117	0.000000	0.007159	0.010184	0.000000	0.012448	2.306789	0.000000	0.000000	0.000000	0.000000	0.000000	1
13.796152	15.642117	0.000000	0.011309	0.017691	0.000000	0.020997	1.444138	0.000000	0.000000	0.000000	0.000000	0.000000	1
16.905145	15.642117	0.000000	0.012804	0.017924	0.000000	0.022028	-0.822029	0.000000	0.000000	0.000000	0.000000	0.000000	1
20.014137	15.642117	0.000000	0.007342	0.014009	0.000000	0.015816	-1.875607	0.000000	0.000000	0.000000	0.000000	0.000000	1
23.123129	15.642117	0.000000	-0.002236	0.007868	0.000000	0.008180	0.446940	0.000000	0.000000	0.000000	0.000000	0.000000	1
26.232121	15.642117	0.000000	0.008119	0.017772	0.000000	0.019538	0.927667	0.000000	0.000000	0.000000	0.000000	0.000000	1
29.341113	15.642117	0.000000	0.012484	0.022012	0.000000	0.025306	-1.304866	0.000000	0.000000	0.000000	0.000000	0.000000	1
32.450105	15.642117	0.000000	0.006426	0.013179	0.000000	0.014662	-0.328014	0.000000	0.000000	0.000000	0.000000	0.000000	1
35.559097	15.642117	0.000000	0.001510	0.011279	0.000000	0.011380	1.930272	0.000000	0.000000	0.000000	0.000000	0.000000	1
38.668089	15.642117	0.000000	0.000062	0.010468	0.000000	0.010468	0.580886	0.000000	0.000000	0.000000	0.000000	0.000000	1
41.777081	15.642117	0.000000	0.006682	0.011053	0.000000	0.012915	-2.454408	0.000000	0.000000	0.000000	0.000000	0.000000	1
44.886073	15.642117	0.000000	-0.004820	0.010157	0.000000	0.011242	-2.986884	0.000000	0.000000	0.000000	0.000000	0.000000	1
47.995066	15.642117	0.000000	-0.005901	0.010233	0.000000	0.011812	-1.106159	0.000000	0.000000	0.000000	0.000000	0.000000	1
51.104058	15.642117	0.000000	-0.012647	0.012570	0.000000	0.017831	-0.869352	0.000000	0.000000	0.000000	0.000000	0.000000	2
54.213050	15.642117	0.000000	-0.044832	0.012651	0.000000	0.046583	-0.818455	0.000000	0.000000	0.000000	0.000000	0.000000	2
57.322042	15.642117	0.000000	-0.017464	0.001325	0.000000	0.017514	2.997056	0.000000	0.000000	0.000000	0.000000	0.000000	1
60.431034	15.642117	0.000000	-0.022934	0.007474	0.000000	0.024122	4.189363	0.000000	0.000000	0.000000	0.000000	0.000000	1
63.540026	15.642117	0.000000	-0.020103	0.008512	0.000000	0.021831	0.195200	0.000000	0.000000	0.000000	0.000000	0.000000	1
66.649018	15.642117	0.000000	-0.020116	0.008404	0.000000	0.021801	2.828700	0.000000	0.000000	0.000000	0.000000	0.000000	1
69.758010	15.642117	0.000000	-0.009794	0.056017	0.000000	0.056866	30.059261	0.000000	0.000000	0.000000	0.000000	0.000000	1
72.867002	15.642117	0.000000	-0.052305	0.139479	0.000000	0.148964	85.746688	0.000000	0.000000	0.000000	0.000000	0.000000	1
75.975994	15.642117	0.000000	-0.161280	0.652709	0.000000	0.672339	58.314647	0.000000	0.000000	0.000000	0.000000	0.000000	2
79.084987	15.642117	0.000000	-0.164381	0.620233	0.000000	0.641646	-59.263967	0.000000	0.000000	0.000000	0.000000	0.000000	2
82.193979	15.642117	0.000000	0.030092	0.281420	0.000000	0.283025	-80.528176	0.000000	0.000000	0.000000	0.000000	0.000000	2
85.302971	15.642117	0.000000	0.043624	0.362651	0.000000	0.365265	-41.258729	0.000000	0.000000	0.000000	0.000000	0.000000	2
88.411963	15.642117	0.000000	0.111669	0.357937	0.000000	0.374952	-67.533326	0.000000	0.000000	0.000000	0.000000	0.000000	2
91.520955	15.642117	0.000000	0.232207	0.182704	0.000000	0.295467	-49.290506	0.000000	0.000000	0.000000	0.000000	0.000000	1
94.629947	15.642117	0.000000	0.260607	0.222408	0.000000	0.342610	-12.532624	0.000000	0.000000	0.000000	0.000000	0.000000	1
97.738939	15.642117	0.000000	0.195924	0.240308	0.000000	0.310055	-40.063284	0.000000	0.000000	0.000000	0.000000	0.000000	2
100.847931	15.642117	0.000000	0.134132	0.138141	0.000000	0.192547	-60.390208	0.000000	0.000000	0.000000	0.000000	0.000000	2
103.956923	15.642117	0.000000	0.224734	0.113926	0.000000	0.251961	-43.261261	0.000000	0.000000	0.000000	0.000000	0.000000	2
107.065915	15.642117	0.000000	0.314788	0.130619	0.000000	0.340812	-14.395670	0.000000	0.000000	0.000000	0.000000	0.000000	2
110.174908	15.642117	0.000000	0.361048	0.122190	0.000000	0.381164	-16.377980	0.000000	0.000000	0.000000	0.000000	0.000000	2
113.283900	15.642117	0.000000	0.323333	0.082643	0.000000	0.333728	-29.377883	0.000000	0.000000	0.000000	0.000000	0.000000	2
116.392892	15.642117	0.000000	0.247455	0.051131	0.000000	0.252682	-33.707976	0.000000	0.000000	0.000000	0.000000	0.000000	1
119.501884	15.642117	0.000000	0.007009	0.010668	0.000000	0.012765	-20.680671	0.000000	0.000000	0.000000	0.000000	0.000000	1