TITLE = "PIV Result  2257 "
VARIABLES = "X (mm)""Y (mm)""Z (mm)""U (m/s)""V (m/s)""W (m/s)""Speed (m/s)""Vorticity""U-std""V-std""W-std""Speed-std""Vorticity-std""Flag"
ZONE T="ZONE 2257 "
I= 51 , J= 16 , K= 1 , F=POINT
DT=(DOUBLE DOUBLE DOUBLE DOUBLE DOUBLE DOUBLE DOUBLE DOUBLE DOUBLE DOUBLE DOUBLE DOUBLE DOUBLE DOUBLE)
4.469176	3.206148	0.000000	0.003324	0.011914	0.000000	0.012369	1.362799	0.000000	0.000000	0.000000	0.000000	0.000000	2
7.578168	3.206148	0.000000	0.000453	0.016046	0.000000	0.016053	0.058817	0.000000	0.000000	0.000000	0.000000	0.000000	1
10.687160	3.206148	0.000000	0.000883	0.013940	0.000000	0.013968	-2.021926	0.000000	0.000000	0.000000	0.000000	0.000000	1
13.796152	3.206148	0.000000	-0.000830	0.010199	0.000000	0.010233	-2.927676	0.000000	0.000000	0.000000	0.000000	0.000000	1
16.905145	3.206148	0.000000	-0.000697	0.004680	0.000000	0.004731	-2.330424	0.000000	0.000000	0.000000	0.000000	0.000000	1
20.014137	3.206148	0.000000	0.001314	0.005163	0.000000	0.005327	-2.450908	0.000000	0.000000	0.000000	0.000000	0.000000	1
23.123129	3.206148	0.000000	0.000603	0.007144	0.000000	0.007170	-3.688465	0.000000	0.000000	0.000000	0.000000	0.000000	1
26.232121	3.206148	0.000000	0.001430	0.007862	0.000000	0.007991	-3.869646	0.000000	0.000000	0.000000	0.000000	0.000000	1
29.341113	3.206148	0.000000	-0.009691	0.017944	0.000000	0.020394	-4.114870	0.000000	0.000000	0.000000	0.000000	0.000000	1
32.450105	3.206148	0.000000	-0.008536	0.018284	0.000000	0.020178	-5.825967	0.000000	0.000000	0.000000	0.000000	0.000000	1
35.559097	3.206148	0.000000	-0.002419	0.000605	0.000000	0.002494	-4.221392	0.000000	0.000000	0.000000	0.000000	0.000000	1
38.668089	3.206148	0.000000	-0.001335	0.000133	0.000000	0.001342	-1.541353	0.000000	0.000000	0.000000	0.000000	0.000000	1
41.777081	3.206148	0.000000	-0.000129	0.000229	0.000000	0.000263	-1.723061	0.000000	0.000000	0.000000	0.000000	0.000000	1
44.886073	3.206148	0.000000	-0.002921	0.002272	0.000000	0.003700	-2.904543	0.000000	0.000000	0.000000	0.000000	0.000000	1
47.995066	3.206148	0.000000	-0.002615	0.002313	0.000000	0.003491	-4.009496	0.000000	0.000000	0.000000	0.000000	0.000000	1
51.104058	3.206148	0.000000	-0.000786	-0.000166	0.000000	0.000803	-3.358814	0.000000	0.000000	0.000000	0.000000	0.000000	1
54.213050	3.206148	0.000000	0.002016	-0.000907	0.000000	0.002211	-2.949383	0.000000	0.000000	0.000000	0.000000	0.000000	1
57.322042	3.206148	0.000000	-0.000924	-0.000709	0.000000	0.001165	-2.509203	0.000000	0.000000	0.000000	0.000000	0.000000	1
60.431034	3.206148	0.000000	-0.002731	0.000318	0.000000	0.002749	-3.026764	0.000000	0.000000	0.000000	0.000000	0.000000	1
63.540026	3.206148	0.000000	-0.003070	0.000214	0.000000	0.003077	-1.865354	0.000000	0.000000	0.000000	0.000000	0.000000	1
66.649018	3.206148	0.000000	-0.003451	0.001393	0.000000	0.003721	-0.964046	0.000000	0.000000	0.000000	0.000000	0.000000	1
69.758010	3.206148	0.000000	-0.004531	0.002923	0.000000	0.005392	-7.895663	0.000000	0.000000	0.000000	0.000000	0.000000	1
72.867002	3.206148	0.000000	0.011263	-0.045282	0.000000	0.046662	-5.094288	0.000000	0.000000	0.000000	0.000000	0.000000	1
75.975994	3.206148	0.000000	0.130245	-0.047829	0.000000	0.138749	76.144987	0.000000	0.000000	0.000000	0.000000	0.000000	2
79.084987	3.206148	0.000000	0.268583	0.503685	0.000000	0.570820	228.355948	0.000000	0.000000	0.000000	0.000000	0.000000	2
82.193979	3.206148	0.000000	0.248654	1.175103	0.000000	1.201123	196.354094	0.000000	0.000000	0.000000	0.000000	0.000000	1
85.302971	3.206148	0.000000	0.290383	1.402539	0.000000	1.432284	-22.086306	0.000000	0.000000	0.000000	0.000000	0.000000	1
88.411963	3.206148	0.000000	0.296387	0.625118	0.000000	0.691822	-175.953815	0.000000	0.000000	0.000000	0.000000	0.000000	2
91.520955	3.206148	0.000000	0.176114	0.161753	0.000000	0.239124	-118.458852	0.000000	0.000000	0.000000	0.000000	0.000000	2
94.629947	3.206148	0.000000	0.082089	0.115131	0.000000	0.141400	-32.779195	0.000000	0.000000	0.000000	0.000000	0.000000	2
97.738939	3.206148	0.000000	0.048517	0.038495	0.000000	0.061934	-40.197793	0.000000	0.000000	0.000000	0.000000	0.000000	2
100.847931	3.206148	0.000000	0.054480	-0.001981	0.000000	0.054516	-18.829849	0.000000	0.000000	0.000000	0.000000	0.000000	2
103.956923	3.206148	0.000000	0.014050	0.001422	0.000000	0.014122	-11.627348	0.000000	0.000000	0.000000	0.000000	0.000000	1
107.065915	3.206148	0.000000	0.007961	-0.000476	0.000000	0.007975	-10.028306	0.000000	0.000000	0.000000	0.000000	0.000000	1
110.174908	3.206148	0.000000	-0.002820	-0.002194	0.000000	0.003573	-4.881757	0.000000	0.000000	0.000000	0.000000	0.000000	1
113.283900	3.206148	0.000000	-0.000078	-0.001041	0.000000	0.001044	-2.777655	0.000000	0.000000	0.000000	0.000000	0.000000	1
116.392892	3.206148	0.000000	-0.004640	0.000700	0.000000	0.004692	1.875270	0.000000	0.000000	0.000000	0.000000	0.000000	1
119.501884	3.206148	0.000000	-0.004875	0.000287	0.000000	0.004884	4.446061	0.000000	0.000000	0.000000	0.000000	0.000000	1
122.610876	3.206148	0.000000	0.000381	-0.000214	0.000000	0.000437	3.023090	0.000000	0.000000	0.000000	0.000000	0.000000	1
125.719868	3.206148	0.000000	-0.000348	0.000336	0.000000	0.000483	1.852975	0.000000	0.000000	0.000000	0.000000	0.000000	1
128.828860	3.206148	0.000000	-0.000950	0.000760	0.000000	0.001217	1.598896	0.000000	0.000000	0.000000	0.000000	0.000000	1
131.937852	3.206148	0.000000	0.000275	0.000959	0.000000	0.000997	0.970957	0.000000	0.000000	0.000000	0.000000	0.000000	1
135.046844	3.206148	0.000000	-0.003675	0.005764	0.000000	0.006836	-0.603124	0.000000	0.000000	0.000000	0.000000	0.000000	1
138.155836	3.206148	0.000000	-0.003715	0.005121	0.000000	0.006326	-1.165035	0.000000	0.000000	0.000000	0.000000	0.000000	1
141.264829	3.206148	0.000000	-0.001980	0.002025	0.000000	0.002832	0.491875	0.000000	0.000000	0.000000	0.000000	0.000000	1
144.373821	3.206148	0.000000	-0.001619	0.003787	0.000000	0.004119	1.518319	0.000000	0.000000	0.000000	0.000000	0.000000	1
147.482813	3.206148	0.000000	-0.000533	0.002476	0.000000	0.002533	1.455206	0.000000	0.000000	0.000000	0.000000	0.000000	1
150.591805	3.206148	0.000000	-0.001742	0.003488	0.000000	0.003899	0.254198	0.000000	0.000000	0.000000	0.000000	0.000000	1
153.700797	3.206148	0.000000	-0.003440	0.001491	0.000000	0.003749	-0.870954	0.000000	0.000000	0.000000	0.000000	0.000000	1
156.809789	3.206148	0.000000	-0.008288	0.002952	0.000000	0.008798	-0.416579	0.000000	0.000000	0.000000	0.000000	0.000000	1
159.918781	3.206148	0.000000	-0.013871	0.004407	0.000000	0.014554	-0.221177	0.000000	0.000000	0.000000	0.000000	0.000000	1
4.469176	6.315140	0.000000	0.002114	0.009669	0.000000	0.009897	0.917988	0.000000	0.000000	0.000000	0.000000	0.000000	1
7.578168	6.315140	0.000000	-0.000364	0.011983	0.000000	0.011989	-0.014746	0.000000	0.000000	0.000000	0.000000	0.000000	1
10.687160	6.315140	0.000000	0.004751	0.009399	0.000000	0.010532	-1.349648	0.000000	0.000000	0.000000	0.000000	0.000000	1
13.796152	6.315140	0.000000	0.006018	0.006454	0.000000	0.008824	-1.857451	0.000000	0.000000	0.000000	0.000000	0.000000	1
16.905145	6.315140	0.000000	0.004977	0.005489	0.000000	0.007410	-0.966492	0.000000	0.000000	0.000000	0.000000	0.000000	1
20.014137	6.315140	0.000000	0.011885	0.011276	0.000000	0.016383	-0.828055	0.000000	0.000000	0.000000	0.000000	0.000000	1
23.123129	6.315140	0.000000	0.015496	0.014254	0.000000	0.021055	-1.993934	0.000000	0.000000	0.000000	0.000000	0.000000	1
26.232121	6.315140	0.000000	0.013980	0.015614	0.000000	0.020958	-2.204437	0.000000	0.000000	0.000000	0.000000	0.000000	1
29.341113	6.315140	0.000000	0.006485	0.011499	0.000000	0.013202	-1.761953	0.000000	0.000000	0.000000	0.000000	0.000000	1
32.450105	6.315140	0.000000	0.007547	0.015003	0.000000	0.016794	-2.705616	0.000000	0.000000	0.000000	0.000000	0.000000	1
35.559097	6.315140	0.000000	0.001748	0.008894	0.000000	0.009065	-2.937374	0.000000	0.000000	0.000000	0.000000	0.000000	1
38.668089	6.315140	0.000000	0.001983	0.008392	0.000000	0.008623	-2.144216	0.000000	0.000000	0.000000	0.000000	0.000000	1
41.777081	6.315140	0.000000	0.003623	0.004658	0.000000	0.005902	-1.409900	0.000000	0.000000	0.000000	0.000000	0.000000	1
44.886073	6.315140	0.000000	0.002763	0.001331	0.000000	0.003067	-1.307823	0.000000	0.000000	0.000000	0.000000	0.000000	1
47.995066	6.315140	0.000000	0.010280	-0.005533	0.000000	0.011674	-2.021470	0.000000	0.000000	0.000000	0.000000	0.000000	1
51.104058	6.315140	0.000000	0.008658	-0.005177	0.000000	0.010087	-0.386900	0.000000	0.000000	0.000000	0.000000	0.000000	1
54.213050	6.315140	0.000000	0.019209	0.004891	0.000000	0.019822	-0.034355	0.000000	0.000000	0.000000	0.000000	0.000000	1
57.322042	6.315140	0.000000	0.001290	0.004730	0.000000	0.004903	-1.111061	0.000000	0.000000	0.000000	0.000000	0.000000	1
60.431034	6.315140	0.000000	0.003312	0.000125	0.000000	0.003315	-2.099556	0.000000	0.000000	0.000000	0.000000	0.000000	1
63.540026	6.315140	0.000000	0.003838	-0.012626	0.000000	0.013197	-1.462805	0.000000	0.000000	0.000000	0.000000	0.000000	1
66.649018	6.315140	0.000000	-0.000508	-0.001346	0.000000	0.001439	-0.513272	0.000000	0.000000	0.000000	0.000000	0.000000	1
69.758010	6.315140	0.000000	-0.000214	-0.010215	0.000000	0.010217	-4.430930	0.000000	0.000000	0.000000	0.000000	0.000000	1
72.867002	6.315140	0.000000	0.002173	-0.050377	0.000000	0.050424	3.375318	0.000000	0.000000	0.000000	0.000000	0.000000	2
75.975994	6.315140	0.000000	0.119094	-0.047829	0.000000	0.128340	67.753702	0.000000	0.000000	0.000000	0.000000	0.000000	2
79.084987	6.315140	0.000000	0.148794	0.196415	0.000000	0.246411	228.988883	0.000000	0.000000	0.000000	0.000000	0.000000	2
82.193979	6.315140	0.000000	0.126372	1.196062	0.000000	1.202720	195.436527	0.000000	0.000000	0.000000	0.000000	0.000000	1
85.302971	6.315140	0.000000	0.178430	1.263114	0.000000	1.275654	-16.950673	0.000000	0.000000	0.000000	0.000000	0.000000	1
88.411963	6.315140	0.000000	0.270140	1.098946	0.000000	1.131661	-170.563630	0.000000	0.000000	0.000000	0.000000	0.000000	1
91.520955	6.315140	0.000000	0.176114	0.151291	0.000000	0.232175	-146.645764	0.000000	0.000000	0.000000	0.000000	0.000000	2
94.629947	6.315140	0.000000	0.144773	0.172215	0.000000	0.224982	-54.066510	0.000000	0.000000	0.000000	0.000000	0.000000	2
97.738939	6.315140	0.000000	0.135215	0.078971	0.000000	0.156587	-52.068547	0.000000	0.000000	0.000000	0.000000	0.000000	2
100.847931	6.315140	0.000000	0.078165	0.049191	0.000000	0.092355	-18.198900	0.000000	0.000000	0.000000	0.000000	0.000000	2
103.956923	6.315140	0.000000	0.060444	0.062338	0.000000	0.086830	-5.600883	0.000000	0.000000	0.000000	0.000000	0.000000	1
107.065915	6.315140	0.000000	0.020037	0.031638	0.000000	0.037449	-8.959687	0.000000	0.000000	0.000000	0.000000	0.000000	2
110.174908	6.315140	0.000000	0.003664	0.018272	0.000000	0.018636	-5.450548	0.000000	0.000000	0.000000	0.000000	0.000000	1
113.283900	6.315140	0.000000	0.010434	0.007048	0.000000	0.012591	-5.689949	0.000000	0.000000	0.000000	0.000000	0.000000	1
116.392892	6.315140	0.000000	-0.022952	-0.009971	0.000000	0.025025	-2.496718	0.000000	0.000000	0.000000	0.000000	0.000000	1
119.501884	6.315140	0.000000	-0.017184	-0.009381	0.000000	0.019578	2.117930	0.000000	0.000000	0.000000	0.000000	0.000000	1
122.610876	6.315140	0.000000	-0.005134	-0.002210	0.000000	0.005589	1.084659	0.000000	0.000000	0.000000	0.000000	0.000000	1
125.719868	6.315140	0.000000	-0.005414	-0.000239	0.000000	0.005419	0.598017	0.000000	0.000000	0.000000	0.000000	0.000000	1
128.828860	6.315140	0.000000	-0.003746	0.001418	0.000000	0.004005	1.045504	0.000000	0.000000	0.000000	0.000000	0.000000	1
131.937852	6.315140	0.000000	-0.002312	0.005778	0.000000	0.006223	1.211770	0.000000	0.000000	0.000000	0.000000	0.000000	1
135.046844	6.315140	0.000000	-0.000889	0.003304	0.000000	0.003421	0.540639	0.000000	0.000000	0.000000	0.000000	0.000000	1
138.155836	6.315140	0.000000	-0.000090	0.000724	0.000000	0.000730	0.162649	0.000000	0.000000	0.000000	0.000000	0.000000	1
141.264829	6.315140	0.000000	-0.002979	0.001590	0.000000	0.003377	1.010356	0.000000	0.000000	0.000000	0.000000	0.000000	1
144.373821	6.315140	0.000000	-0.005414	0.006006	0.000000	0.008086	0.914569	0.000000	0.000000	0.000000	0.000000	0.000000	1
147.482813	6.315140	0.000000	-0.006078	0.005887	0.000000	0.008462	0.499914	0.000000	0.000000	0.000000	0.000000	0.000000	1
150.591805	6.315140	0.000000	-0.005508	0.005752	0.000000	0.007964	0.094817	0.000000	0.000000	0.000000	0.000000	0.000000	1
153.700797	6.315140	0.000000	-0.000507	-0.000110	0.000000	0.000519	-0.383625	0.000000	0.000000	0.000000	0.000000	0.000000	1
156.809789	6.315140	0.000000	-0.004656	0.001188	0.000000	0.004805	-0.148025	0.000000	0.000000	0.000000	0.000000	0.000000	1
159.918781	6.315140	0.000000	-0.011054	0.004806	0.000000	0.012054	-0.220641	0.000000	0.000000	0.000000	0.000000	0.000000	1
4.469176	9.424132	0.000000	0.000420	0.004458	0.000000	0.004478	0.394776	0.000000	0.000000	0.000000	0.000000	0.000000	1
7.578168	9.424132	0.000000	0.001204	0.004960	0.000000	0.005104	-0.199343	0.000000	0.000000	0.000000	0.000000	0.000000	1
10.687160	9.424132	0.000000	0.005884	0.006204	0.000000	0.008550	-1.056686	0.000000	0.000000	0.000000	0.000000	0.000000	1
13.796152	9.424132	0.000000	0.005989	0.005869	0.000000	0.008386	-1.322349	0.000000	0.000000	0.000000	0.000000	0.000000	1
16.905145	9.424132	0.000000	0.006360	0.002782	0.000000	0.006942	1.350175	0.000000	0.000000	0.000000	0.000000	0.000000	1
20.014137	9.424132	0.000000	0.015937	0.012780	0.000000	0.020429	3.157981	0.000000	0.000000	0.000000	0.000000	0.000000	1
23.123129	9.424132	0.000000	0.018386	0.016279	0.000000	0.024557	1.507421	0.000000	0.000000	0.000000	0.000000	0.000000	1
26.232121	9.424132	0.000000	0.010564	0.011135	0.000000	0.015349	0.728999	0.000000	0.000000	0.000000	0.000000	0.000000	1
29.341113	9.424132	0.000000	0.004554	0.006456	0.000000	0.007900	1.694403	0.000000	0.000000	0.000000	0.000000	0.000000	1
32.450105	9.424132	0.000000	0.005045	0.009317	0.000000	0.010595	1.856265	0.000000	0.000000	0.000000	0.000000	0.000000	1
35.559097	9.424132	0.000000	0.007854	0.013389	0.000000	0.015523	0.066864	0.000000	0.000000	0.000000	0.000000	0.000000	1
38.668089	9.424132	0.000000	0.009977	0.013070	0.000000	0.016442	-1.495159	0.000000	0.000000	0.000000	0.000000	0.000000	1
41.777081	9.424132	0.000000	0.005207	0.007139	0.000000	0.008837	-0.721380	0.000000	0.000000	0.000000	0.000000	0.000000	1
44.886073	9.424132	0.000000	-0.004102	0.010786	0.000000	0.011540	1.813018	0.000000	0.000000	0.000000	0.000000	0.000000	1
47.995066	9.424132	0.000000	0.003544	0.002041	0.000000	0.004090	3.744342	0.000000	0.000000	0.000000	0.000000	0.000000	1
51.104058	9.424132	0.000000	0.008845	-0.003269	0.000000	0.009430	4.566443	0.000000	0.000000	0.000000	0.000000	0.000000	1
54.213050	9.424132	0.000000	0.009059	0.007255	0.000000	0.011606	2.163478	0.000000	0.000000	0.000000	0.000000	0.000000	1
57.322042	9.424132	0.000000	0.001281	0.002526	0.000000	0.002832	1.700140	0.000000	0.000000	0.000000	0.000000	0.000000	1
60.431034	9.424132	0.000000	0.005349	0.007459	0.000000	0.009179	2.829928	0.000000	0.000000	0.000000	0.000000	0.000000	1
63.540026	9.424132	0.000000	0.003715	0.009245	0.000000	0.009963	2.618841	0.000000	0.000000	0.000000	0.000000	0.000000	1
66.649018	9.424132	0.000000	-0.001952	-0.003909	0.000000	0.004370	4.367599	0.000000	0.000000	0.000000	0.000000	0.000000	1
69.758010	9.424132	0.000000	-0.008236	-0.004978	0.000000	0.009624	4.414513	0.000000	0.000000	0.000000	0.000000	0.000000	1
72.867002	9.424132	0.000000	-0.017216	-0.003770	0.000000	0.017624	13.570950	0.000000	0.000000	0.000000	0.000000	0.000000	2
75.975994	9.424132	0.000000	0.007410	0.021457	0.000000	0.022700	45.819139	0.000000	0.000000	0.000000	0.000000	0.000000	2
79.084987	9.424132	0.000000	0.037273	0.133390	0.000000	0.138500	189.025792	0.000000	0.000000	0.000000	0.000000	0.000000	1
82.193979	9.424132	0.000000	0.086204	1.258247	0.000000	1.261196	169.586790	0.000000	0.000000	0.000000	0.000000	0.000000	2
85.302971	9.424132	0.000000	0.132026	1.247466	0.000000	1.254433	-15.539769	0.000000	0.000000	0.000000	0.000000	0.000000	1
88.411963	9.424132	0.000000	0.272674	1.077989	0.000000	1.111940	-125.212352	0.000000	0.000000	0.000000	0.000000	0.000000	1
91.520955	9.424132	0.000000	0.304171	0.391914	0.000000	0.496102	-128.341203	0.000000	0.000000	0.000000	0.000000	0.000000	2
94.629947	9.424132	0.000000	0.369700	0.314075	0.000000	0.485099	-84.343053	0.000000	0.000000	0.000000	0.000000	0.000000	1
97.738939	9.424132	0.000000	0.218592	0.188421	0.000000	0.288591	-83.915398	0.000000	0.000000	0.000000	0.000000	0.000000	2
100.847931	9.424132	0.000000	0.091275	0.046740	0.000000	0.102546	-34.444061	0.000000	0.000000	0.000000	0.000000	0.000000	2
103.956923	9.424132	0.000000	0.038870	0.074602	0.000000	0.084120	-11.681162	0.000000	0.000000	0.000000	0.000000	0.000000	1
107.065915	9.424132	0.000000	0.026271	0.045782	0.000000	0.052784	-27.362124	0.000000	0.000000	0.000000	0.000000	0.000000	1
110.174908	9.424132	0.000000	0.023095	0.030859	0.000000	0.038544	-37.823940	0.000000	0.000000	0.000000	0.000000	0.000000	1
113.283900	9.424132	0.000000	0.007353	0.037530	0.000000	0.038244	-56.274068	0.000000	0.000000	0.000000	0.000000	0.000000	1
116.392892	9.424132	0.000000	-0.015394	-0.027049	0.000000	0.031123	-56.119300	0.000000	0.000000	0.000000	0.000000	0.000000	1
119.501884	9.424132	0.000000	-0.005745	-0.007987	0.000000	0.009839	-24.382961	0.000000	0.000000	0.000000	0.000000	0.000000	2
122.610876	9.424132	0.000000	0.000086	-0.001768	0.000000	0.001771	-4.236944	0.000000	0.000000	0.000000	0.000000	0.000000	1
125.719868	9.424132	0.000000	-0.001204	-0.001658	0.000000	0.002049	0.043586	0.000000	0.000000	0.000000	0.000000	0.000000	1
128.828860	9.424132	0.000000	-0.004305	-0.000486	0.000000	0.004332	0.710107	0.000000	0.000000	0.000000	0.000000	0.000000	1
131.937852	9.424132	0.000000	-0.002589	0.001260	0.000000	0.002879	1.071336	0.000000	0.000000	0.000000	0.000000	0.000000	1
135.046844	9.424132	0.000000	-0.007055	0.008414	0.000000	0.010980	0.632154	0.000000	0.000000	0.000000	0.000000	0.000000	1
138.155836	9.424132	0.000000	-0.007067	0.007675	0.000000	0.010433	0.180329	0.000000	0.000000	0.000000	0.000000	0.000000	1
141.264829	9.424132	0.000000	-0.007067	0.004454	0.000000	0.008353	0.726932	0.000000	0.000000	0.000000	0.000000	0.000000	1
144.373821	9.424132	0.000000	-0.003772	0.007897	0.000000	0.008751	-0.252551	0.000000	0.000000	0.000000	0.000000	0.000000	1
147.482813	9.424132	0.000000	-0.006829	0.002469	0.000000	0.007262	-0.628226	0.000000	0.000000	0.000000	0.000000	0.000000	1
150.591805	9.424132	0.000000	-0.007155	0.000983	0.000000	0.007222	0.997395	0.000000	0.000000	0.000000	0.000000	0.000000	1
153.700797	9.424132	0.000000	-0.002450	0.001677	0.000000	0.002969	1.297624	0.000000	0.000000	0.000000	0.000000	0.000000	1
156.809789	9.424132	0.000000	-0.004100	0.001860	0.000000	0.004503	0.320811	0.000000	0.000000	0.000000	0.000000	0.000000	1
159.918781	9.424132	0.000000	-0.004857	0.003626	0.000000	0.006061	-0.467170	0.000000	0.000000	0.000000	0.000000	0.000000	1
4.469176	12.533124	0.000000	0.001859	0.001994	0.000000	0.002726	1.536342	0.000000	0.000000	0.000000	0.000000	0.000000	1
7.578168	12.533124	0.000000	0.005207	0.008903	0.000000	0.010314	0.791490	0.000000	0.000000	0.000000	0.000000	0.000000	1
10.687160	12.533124	0.000000	0.011529	0.011480	0.000000	0.016270	-0.634339	0.000000	0.000000	0.000000	0.000000	0.000000	1
13.796152	12.533124	0.000000	0.010278	0.009716	0.000000	0.014144	-1.773704	0.000000	0.000000	0.000000	0.000000	0.000000	1
16.905145	12.533124	0.000000	0.000858	0.000522	0.000000	0.001004	1.084442	0.000000	0.000000	0.000000	0.000000	0.000000	1
20.014137	12.533124	0.000000	0.003867	0.012658	0.000000	0.013236	3.230651	0.000000	0.000000	0.000000	0.000000	0.000000	1
23.123129	12.533124	0.000000	0.004096	0.011752	0.000000	0.012446	1.631422	0.000000	0.000000	0.000000	0.000000	0.000000	1
26.232121	12.533124	0.000000	0.006747	0.011052	0.000000	0.012949	1.660183	0.000000	0.000000	0.000000	0.000000	0.000000	1
29.341113	12.533124	0.000000	-0.005245	0.014690	0.000000	0.015599	2.134322	0.000000	0.000000	0.000000	0.000000	0.000000	1
32.450105	12.533124	0.000000	-0.005842	0.013362	0.000000	0.014583	2.265302	0.000000	0.000000	0.000000	0.000000	0.000000	1
35.559097	12.533124	0.000000	0.003809	0.013151	0.000000	0.013692	1.330433	0.000000	0.000000	0.000000	0.000000	0.000000	1
38.668089	12.533124	0.000000	0.006611	0.009491	0.000000	0.011567	-0.173675	0.000000	0.000000	0.000000	0.000000	0.000000	1
41.777081	12.533124	0.000000	0.006963	0.007355	0.000000	0.010128	0.080628	0.000000	0.000000	0.000000	0.000000	0.000000	1
44.886073	12.533124	0.000000	0.000077	0.011796	0.000000	0.011796	3.171277	0.000000	0.000000	0.000000	0.000000	0.000000	1
47.995066	12.533124	0.000000	-0.035656	0.024868	0.000000	0.043471	6.142693	0.000000	0.000000	0.000000	0.000000	0.000000	1
51.104058	12.533124	0.000000	-0.011002	0.025330	0.000000	0.027616	5.131777	0.000000	0.000000	0.000000	0.000000	0.000000	2
54.213050	12.533124	0.000000	0.012685	0.025816	0.000000	0.028764	0.879515	0.000000	0.000000	0.000000	0.000000	0.000000	1
57.322042	12.533124	0.000000	-0.018453	0.005191	0.000000	0.019170	2.031492	0.000000	0.000000	0.000000	0.000000	0.000000	1
60.431034	12.533124	0.000000	-0.013921	0.009215	0.000000	0.016694	6.675691	0.000000	0.000000	0.000000	0.000000	0.000000	1
63.540026	12.533124	0.000000	-0.000532	0.020917	0.000000	0.020924	6.351751	0.000000	0.000000	0.000000	0.000000	0.000000	1
66.649018	12.533124	0.000000	-0.044956	0.028138	0.000000	0.053035	5.528772	0.000000	0.000000	0.000000	0.000000	0.000000	1
69.758010	12.533124	0.000000	-0.043198	0.019333	0.000000	0.047327	3.289621	0.000000	0.000000	0.000000	0.000000	0.000000	1
72.867002	12.533124	0.000000	-0.044467	0.009636	0.000000	0.045499	7.817117	0.000000	0.000000	0.000000	0.000000	0.000000	1
75.975994	12.533124	0.000000	-0.027755	0.058504	0.000000	0.064754	23.152588	0.000000	0.000000	0.000000	0.000000	0.000000	2
79.084987	12.533124	0.000000	0.002770	0.141774	0.000000	0.141802	97.303987	0.000000	0.000000	0.000000	0.000000	0.000000	2
82.193979	12.533124	0.000000	0.028656	0.505868	0.000000	0.506679	97.667104	0.000000	0.000000	0.000000	0.000000	0.000000	2
85.302971	12.533124	0.000000	0.094965	0.639964	0.000000	0.646972	-7.330925	0.000000	0.000000	0.000000	0.000000	0.000000	2
88.411963	12.533124	0.000000	0.293826	0.336035	0.000000	0.446378	-21.365951	0.000000	0.000000	0.000000	0.000000	0.000000	2
91.520955	12.533124	0.000000	0.389227	0.525632	0.000000	0.654054	-9.484199	0.000000	0.000000	0.000000	0.000000	0.000000	2
94.629947	12.533124	0.000000	0.635094	0.538725	0.000000	0.832808	-59.720778	0.000000	0.000000	0.000000	0.000000	0.000000	1
97.738939	12.533124	0.000000	0.370818	0.336517	0.000000	0.500749	-101.337303	0.000000	0.000000	0.000000	0.000000	0.000000	2
100.847931	12.533124	0.000000	0.125955	0.118593	0.000000	0.173000	-70.640100	0.000000	0.000000	0.000000	0.000000	0.000000	2
103.956923	12.533124	0.000000	0.095167	0.090003	0.000000	0.130986	-25.757647	0.000000	0.000000	0.000000	0.000000	0.000000	2
107.065915	12.533124	0.000000	0.253635	0.198364	0.000000	0.321992	-24.679782	0.000000	0.000000	0.000000	0.000000	0.000000	2
110.174908	12.533124	0.000000	0.249912	0.289169	0.000000	0.382197	-42.385482	0.000000	0.000000	0.000000	0.000000	0.000000	1
113.283900	12.533124	0.000000	0.290591	0.304950	0.000000	0.421234	-74.189616	0.000000	0.000000	0.000000	0.000000	0.000000	1
116.392892	12.533124	0.000000	0.290992	0.154085	0.000000	0.329269	-90.695805	0.000000	0.000000	0.000000	0.000000	0.000000	2
119.501884	12.533124	0.000000	0.077118	0.018961	0.000000	0.079415	-66.097850	0.000000	0.000000	0.000000	0.000000	0.000000	2
122.610876	12.533124	0.000000	-0.001600	-0.004608	0.000000	0.004878	-26.983405	0.000000	0.000000	0.000000	0.000000	0.000000	1
125.719868	12.533124	0.000000	-0.000478	-0.001916	0.000000	0.001974	-2.671705	0.000000	0.000000	0.000000	0.000000	0.000000	1
128.828860	12.533124	0.000000	-0.006408	0.001025	0.000000	0.006490	1.141963	0.000000	0.000000	0.000000	0.000000	0.000000	1
131.937852	12.533124	0.000000	-0.003498	0.002320	0.000000	0.004197	0.745012	0.000000	0.000000	0.000000	0.000000	0.000000	1
135.046844	12.533124	0.000000	-0.002363	0.001479	0.000000	0.002788	0.158075	0.000000	0.000000	0.000000	0.000000	0.000000	1
138.155836	12.533124	0.000000	-0.003561	0.002661	0.000000	0.004445	-0.232788	0.000000	0.000000	0.000000	0.000000	0.000000	1
141.264829	12.533124	0.000000	-0.006306	0.003854	0.000000	0.007390	0.358673	0.000000	0.000000	0.000000	0.000000	0.000000	1
144.373821	12.533124	0.000000	-0.002466	0.007839	0.000000	0.008218	-0.176989	0.000000	0.000000	0.000000	0.000000	0.000000	1
147.482813	12.533124	0.000000	-0.006197	-0.000305	0.000000	0.006205	-0.112972	0.000000	0.000000	0.000000	0.000000	0.000000	1
150.591805	12.533124	0.000000	-0.013035	0.001479	0.000000	0.013119	1.334614	0.000000	0.000000	0.000000	0.000000	0.000000	1
153.700797	12.533124	0.000000	-0.014053	0.003364	0.000000	0.014450	0.969336	0.000000	0.000000	0.000000	0.000000	0.000000	1
156.809789	12.533124	0.000000	-0.002889	0.003711	0.000000	0.004703	0.207919	0.000000	0.000000	0.000000	0.000000	0.000000	1
159.918781	12.533124	0.000000	-0.000712	0.002861	0.000000	0.002949	0.049360	0.000000	0.000000	0.000000	0.000000	0.000000	1
4.469176	15.642117	0.000000	0.000048	0.002461	0.000000	0.002461	2.059079	0.000000	0.000000	0.000000	0.000000	0.000000	1
7.578168	15.642117	0.000000	0.003193	0.008865	0.000000	0.009423	1.859204	0.000000	0.000000	0.000000	0.000000	0.000000	1
10.687160	15.642117	0.000000	0.012071	0.011222	0.000000	0.016482	1.383987	0.000000	0.000000	0.000000	0.000000	0.000000	1
13.796152	15.642117	0.000000	0.009737	0.008660	0.000000	0.013031	-0.017013	0.000000	0.000000	0.000000	0.000000	0.000000	1
16.905145	15.642117	0.000000	0.003644	0.003412	0.000000	0.004992	0.343099	0.000000	0.000000	0.000000	0.000000	0.000000	1
20.014137	15.642117	0.000000	0.005738	0.010955	0.000000	0.012367	0.666945	0.000000	0.000000	0.000000	0.000000	0.000000	1
23.123129	15.642117	0.000000	0.004501	0.010805	0.000000	0.011705	0.114529	0.000000	0.000000	0.000000	0.000000	0.000000	1
26.232121	15.642117	0.000000	0.005635	0.013491	0.000000	0.014620	-0.045706	0.000000	0.000000	0.000000	0.000000	0.000000	1
29.341113	15.642117	0.000000	-0.009365	0.018383	0.000000	0.020631	-1.404859	0.000000	0.000000	0.000000	0.000000	0.000000	1
32.450105	15.642117	0.000000	-0.009625	0.016336	0.000000	0.018961	-1.090748	0.000000	0.000000	0.000000	0.000000	0.000000	1
35.559097	15.642117	0.000000	-0.001727	0.018030	0.000000	0.018112	-1.698225	0.000000	0.000000	0.000000	0.000000	0.000000	1
38.668089	15.642117	0.000000	0.002961	0.012567	0.000000	0.012912	-2.412540	0.000000	0.000000	0.000000	0.000000	0.000000	1
41.777081	15.642117	0.000000	0.006061	0.008795	0.000000	0.010682	2.224439	0.000000	0.000000	0.000000	0.000000	0.000000	1
44.886073	15.642117	0.000000	-0.000508	0.010535	0.000000	0.010547	6.971936	0.000000	0.000000	0.000000	0.000000	0.000000	1
47.995066	15.642117	0.000000	-0.028410	0.033832	0.000000	0.044178	5.010403	0.000000	0.000000	0.000000	0.000000	0.000000	1
51.104058	15.642117	0.000000	-0.029618	0.051527	0.000000	0.059433	2.548895	0.000000	0.000000	0.000000	0.000000	0.000000	1
54.213050	15.642117	0.000000	-0.008140	0.028281	0.000000	0.029429	-0.656913	0.000000	0.000000	0.000000	0.000000	0.000000	2
57.322042	15.642117	0.000000	-0.026301	0.007442	0.000000	0.027334	0.027937	0.000000	0.000000	0.000000	0.000000	0.000000	1
60.431034	15.642117	0.000000	-0.025571	0.008523	0.000000	0.026954	5.985516	0.000000	0.000000	0.000000	0.000000	0.000000	1
63.540026	15.642117	0.000000	-0.009245	0.032928	0.000000	0.034201	2.784238	0.000000	0.000000	0.000000	0.000000	0.000000	1
66.649018	15.642117	0.000000	-0.044509	0.040630	0.000000	0.060264	-3.958348	0.000000	0.000000	0.000000	0.000000	0.000000	1
69.758010	15.642117	0.000000	-0.059332	0.038660	0.000000	0.070816	-5.000050	0.000000	0.000000	0.000000	0.000000	0.000000	1
72.867002	15.642117	0.000000	-0.009578	0.022205	0.000000	0.024183	1.829986	0.000000	0.000000	0.000000	0.000000	0.000000	1
75.975994	15.642117	0.000000	-0.028201	0.056882	0.000000	0.063489	8.904521	0.000000	0.000000	0.000000	0.000000	0.000000	1
79.084987	15.642117	0.000000	0.004318	0.100080	0.000000	0.100173	25.907497	0.000000	0.000000	0.000000	0.000000	0.000000	2
82.193979	15.642117	0.000000	0.034070	0.191853	0.000000	0.194855	34.349997	0.000000	0.000000	0.000000	0.000000	0.000000	1
85.302971	15.642117	0.000000	0.059177	0.208729	0.000000	0.216956	14.582685	0.000000	0.000000	0.000000	0.000000	0.000000	2
88.411963	15.642117	0.000000	0.125482	0.184419	0.000000	0.223061	61.109033	0.000000	0.000000	0.000000	0.000000	0.000000	2
91.520955	15.642117	0.000000	0.493812	0.583941	0.000000	0.764746	98.039797	0.000000	0.000000	0.000000	0.000000	0.000000	1
94.629947	15.642117	0.000000	0.524163	0.693615	0.000000	0.869396	9.039385	0.000000	0.000000	0.000000	0.000000	0.000000	1
97.738939	15.642117	0.000000	0.554267	0.514533	0.000000	0.756278	-67.881574	0.000000	0.000000	0.000000	0.000000	0.000000	2
100.847931	15.642117	0.000000	0.265864	0.281157	0.000000	0.386953	-62.032932	0.000000	0.000000	0.000000	0.000000	0.000000	2
103.956923	15.642117	0.000000	0.218320	0.228724	0.000000	0.316193	-29.244175	0.000000	0.000000	0.000000	0.000000	0.000000	1
107.065915	15.642117	0.000000	0.287218	0.276366	0.000000	0.398588	-12.114120	0.000000	0.000000	0.000000	0.000000	0.000000	1
110.174908	15.642117	0.000000	0.356138	0.294685	0.000000	0.462248	-17.858298	0.000000	0.000000	0.000000	0.000000	0.000000	1
113.283900	15.642117	0.000000	0.374176	0.311089	0.000000	0.486605	-32.529312	0.000000	0.000000	0.000000	0.000000	0.000000	1
116.392892	15.642117	0.000000	0.386086	0.245687	0.000000	0.457629	-44.216654	0.000000	0.000000	0.000000	0.000000	0.000000	1
119.501884	15.642117	0.000000	0.330709	0.179037	0.000000	0.376062	-55.323994	0.000000	0.000000	0.000000	0.000000	0.000000	1
122.610876	15.642117	0.000000	0.059118	0.027228	0.000000	0.065087	-41.167565	0.000000	0.000000	0.000000	0.000000	0.000000	2