TITLE = "PIV Result  2211 "
VARIABLES = "X (mm)""Y (mm)""Z (mm)""U (m/s)""V (m/s)""W (m/s)""Speed (m/s)""Vorticity""U-std""V-std""W-std""Speed-std""Vorticity-std""Flag"
ZONE T="ZONE 2211 "
I= 51 , J= 16 , K= 1 , F=POINT
DT=(DOUBLE DOUBLE DOUBLE DOUBLE DOUBLE DOUBLE DOUBLE DOUBLE DOUBLE DOUBLE DOUBLE DOUBLE DOUBLE DOUBLE)
4.469176	3.206148	0.000000	-0.002772	0.003601	0.000000	0.004544	1.680121	0.000000	0.000000	0.000000	0.000000	0.000000	1
7.578168	3.206148	0.000000	0.001222	0.011823	0.000000	0.011886	0.727794	0.000000	0.000000	0.000000	0.000000	0.000000	1
10.687160	3.206148	0.000000	0.002216	0.010220	0.000000	0.010458	-0.427658	0.000000	0.000000	0.000000	0.000000	0.000000	1
13.796152	3.206148	0.000000	0.005070	0.005397	0.000000	0.007405	0.227635	0.000000	0.000000	0.000000	0.000000	0.000000	1
16.905145	3.206148	0.000000	0.006812	0.007599	0.000000	0.010205	0.344571	0.000000	0.000000	0.000000	0.000000	0.000000	1
20.014137	3.206148	0.000000	0.003184	0.010847	0.000000	0.011305	-1.347898	0.000000	0.000000	0.000000	0.000000	0.000000	1
23.123129	3.206148	0.000000	0.002292	0.012776	0.000000	0.012980	-4.119847	0.000000	0.000000	0.000000	0.000000	0.000000	1
26.232121	3.206148	0.000000	0.005894	0.012832	0.000000	0.014121	-6.235187	0.000000	0.000000	0.000000	0.000000	0.000000	1
29.341113	3.206148	0.000000	0.001976	0.004018	0.000000	0.004478	-2.906353	0.000000	0.000000	0.000000	0.000000	0.000000	1
32.450105	3.206148	0.000000	0.001742	0.006101	0.000000	0.006345	-0.358975	0.000000	0.000000	0.000000	0.000000	0.000000	1
35.559097	3.206148	0.000000	0.000010	-0.002590	0.000000	0.002590	-2.013233	0.000000	0.000000	0.000000	0.000000	0.000000	1
38.668089	3.206148	0.000000	0.000656	-0.001753	0.000000	0.001871	-1.786781	0.000000	0.000000	0.000000	0.000000	0.000000	1
41.777081	3.206148	0.000000	-0.001199	-0.000148	0.000000	0.001208	-1.676086	0.000000	0.000000	0.000000	0.000000	0.000000	1
44.886073	3.206148	0.000000	0.001533	-0.000169	0.000000	0.001543	-1.864765	0.000000	0.000000	0.000000	0.000000	0.000000	1
47.995066	3.206148	0.000000	0.001657	0.000128	0.000000	0.001662	-1.563766	0.000000	0.000000	0.000000	0.000000	0.000000	1
51.104058	3.206148	0.000000	0.000485	0.000670	0.000000	0.000827	-0.811603	0.000000	0.000000	0.000000	0.000000	0.000000	1
54.213050	3.206148	0.000000	0.003048	-0.000448	0.000000	0.003081	-1.211548	0.000000	0.000000	0.000000	0.000000	0.000000	1
57.322042	3.206148	0.000000	0.000509	-0.000264	0.000000	0.000573	-1.879643	0.000000	0.000000	0.000000	0.000000	0.000000	1
60.431034	3.206148	0.000000	-0.001665	0.000595	0.000000	0.001768	-1.392121	0.000000	0.000000	0.000000	0.000000	0.000000	1
63.540026	3.206148	0.000000	0.004507	0.000066	0.000000	0.004508	-2.303862	0.000000	0.000000	0.000000	0.000000	0.000000	1
66.649018	3.206148	0.000000	0.002509	0.000079	0.000000	0.002511	-0.903296	0.000000	0.000000	0.000000	0.000000	0.000000	1
69.758010	3.206148	0.000000	-0.001938	-0.000359	0.000000	0.001971	-1.133185	0.000000	0.000000	0.000000	0.000000	0.000000	1
72.867002	3.206148	0.000000	-0.028298	-0.018036	0.000000	0.033557	-1.399642	0.000000	0.000000	0.000000	0.000000	0.000000	1
75.975994	3.206148	0.000000	-0.000256	0.000059	0.000000	0.000262	0.730912	0.000000	0.000000	0.000000	0.000000	0.000000	1
79.084987	3.206148	0.000000	0.017224	0.007367	0.000000	0.018733	83.583029	0.000000	0.000000	0.000000	0.000000	0.000000	1
82.193979	3.206148	0.000000	0.274533	0.614619	0.000000	0.673146	252.261141	0.000000	0.000000	0.000000	0.000000	0.000000	2
85.302971	3.206148	0.000000	0.875907	1.467077	0.000000	1.708662	195.386900	0.000000	0.000000	0.000000	0.000000	0.000000	1
88.411963	3.206148	0.000000	0.996220	1.098806	0.000000	1.483182	68.633250	0.000000	0.000000	0.000000	0.000000	0.000000	1
91.520955	3.206148	0.000000	1.082658	1.195494	0.000000	1.612871	-75.213714	0.000000	0.000000	0.000000	0.000000	0.000000	1
94.629947	3.206148	0.000000	0.182511	0.037995	0.000000	0.186423	-135.292509	0.000000	0.000000	0.000000	0.000000	0.000000	2
97.738939	3.206148	0.000000	0.090210	0.027978	0.000000	0.094449	-29.551182	0.000000	0.000000	0.000000	0.000000	0.000000	2
100.847931	3.206148	0.000000	0.093786	0.006773	0.000000	0.094030	-13.539280	0.000000	0.000000	0.000000	0.000000	0.000000	2
103.956923	3.206148	0.000000	0.095574	0.003371	0.000000	0.095633	-7.212617	0.000000	0.000000	0.000000	0.000000	0.000000	2
107.065915	3.206148	0.000000	0.061756	0.029073	0.000000	0.068257	-19.631218	0.000000	0.000000	0.000000	0.000000	0.000000	2
110.174908	3.206148	0.000000	0.005274	-0.002254	0.000000	0.005735	-20.567205	0.000000	0.000000	0.000000	0.000000	0.000000	1
113.283900	3.206148	0.000000	-0.003081	-0.002198	0.000000	0.003785	-4.069178	0.000000	0.000000	0.000000	0.000000	0.000000	1
116.392892	3.206148	0.000000	-0.000343	-0.000642	0.000000	0.000727	5.559839	0.000000	0.000000	0.000000	0.000000	0.000000	1
119.501884	3.206148	0.000000	-0.002002	-0.001033	0.000000	0.002253	6.065236	0.000000	0.000000	0.000000	0.000000	0.000000	1
122.610876	3.206148	0.000000	-0.002108	-0.000787	0.000000	0.002250	3.146097	0.000000	0.000000	0.000000	0.000000	0.000000	1
125.719868	3.206148	0.000000	-0.001844	-0.000453	0.000000	0.001899	1.504657	0.000000	0.000000	0.000000	0.000000	0.000000	1
128.828860	3.206148	0.000000	0.005525	-0.000465	0.000000	0.005545	2.792915	0.000000	0.000000	0.000000	0.000000	0.000000	1
131.937852	3.206148	0.000000	0.002788	0.000397	0.000000	0.002816	2.229583	0.000000	0.000000	0.000000	0.000000	0.000000	1
135.046844	3.206148	0.000000	-0.004154	0.010859	0.000000	0.011626	-0.118313	0.000000	0.000000	0.000000	0.000000	0.000000	1
138.155836	3.206148	0.000000	-0.006229	0.012103	0.000000	0.013612	-1.736388	0.000000	0.000000	0.000000	0.000000	0.000000	1
141.264829	3.206148	0.000000	-0.002463	0.004559	0.000000	0.005182	-0.985988	0.000000	0.000000	0.000000	0.000000	0.000000	1
144.373821	3.206148	0.000000	-0.002167	0.003566	0.000000	0.004172	0.029258	0.000000	0.000000	0.000000	0.000000	0.000000	1
147.482813	3.206148	0.000000	-0.003513	0.004104	0.000000	0.005402	0.007029	0.000000	0.000000	0.000000	0.000000	0.000000	1
150.591805	3.206148	0.000000	-0.002797	0.003234	0.000000	0.004276	-0.517047	0.000000	0.000000	0.000000	0.000000	0.000000	1
153.700797	3.206148	0.000000	-0.006011	0.000433	0.000000	0.006027	-1.806902	0.000000	0.000000	0.000000	0.000000	0.000000	1
156.809789	3.206148	0.000000	-0.006944	0.002590	0.000000	0.007411	-1.638724	0.000000	0.000000	0.000000	0.000000	0.000000	1
159.918781	3.206148	0.000000	-0.008055	0.004922	0.000000	0.009440	-0.655494	0.000000	0.000000	0.000000	0.000000	0.000000	1
4.469176	6.315140	0.000000	-0.002209	0.003616	0.000000	0.004238	0.446773	0.000000	0.000000	0.000000	0.000000	0.000000	1
7.578168	6.315140	0.000000	0.001052	0.006233	0.000000	0.006321	0.268787	0.000000	0.000000	0.000000	0.000000	0.000000	1
10.687160	6.315140	0.000000	0.001505	0.005557	0.000000	0.005758	0.238284	0.000000	0.000000	0.000000	0.000000	0.000000	1
13.796152	6.315140	0.000000	0.003858	0.004535	0.000000	0.005954	1.085721	0.000000	0.000000	0.000000	0.000000	0.000000	1
16.905145	6.315140	0.000000	0.008526	0.009588	0.000000	0.012831	0.867973	0.000000	0.000000	0.000000	0.000000	0.000000	1
20.014137	6.315140	0.000000	0.006468	0.008869	0.000000	0.010977	-0.315375	0.000000	0.000000	0.000000	0.000000	0.000000	1
23.123129	6.315140	0.000000	0.018544	0.012181	0.000000	0.022187	-0.703363	0.000000	0.000000	0.000000	0.000000	0.000000	1
26.232121	6.315140	0.000000	0.027850	0.013393	0.000000	0.030903	-1.635616	0.000000	0.000000	0.000000	0.000000	0.000000	1
29.341113	6.315140	0.000000	0.002157	0.003743	0.000000	0.004320	-1.614153	0.000000	0.000000	0.000000	0.000000	0.000000	1
32.450105	6.315140	0.000000	0.003404	0.007961	0.000000	0.008658	-0.846692	0.000000	0.000000	0.000000	0.000000	0.000000	1
35.559097	6.315140	0.000000	0.007423	0.016805	0.000000	0.018372	-1.667050	0.000000	0.000000	0.000000	0.000000	0.000000	1
38.668089	6.315140	0.000000	0.003378	0.009989	0.000000	0.010544	-1.537967	0.000000	0.000000	0.000000	0.000000	0.000000	1
41.777081	6.315140	0.000000	0.002531	0.008731	0.000000	0.009090	-1.618663	0.000000	0.000000	0.000000	0.000000	0.000000	1
44.886073	6.315140	0.000000	0.002962	-0.000828	0.000000	0.003075	-1.735914	0.000000	0.000000	0.000000	0.000000	0.000000	1
47.995066	6.315140	0.000000	0.006332	-0.003475	0.000000	0.007222	-1.081260	0.000000	0.000000	0.000000	0.000000	0.000000	1
51.104058	6.315140	0.000000	0.003425	-0.007396	0.000000	0.008151	0.689914	0.000000	0.000000	0.000000	0.000000	0.000000	1
54.213050	6.315140	0.000000	0.013225	0.007741	0.000000	0.015324	0.648731	0.000000	0.000000	0.000000	0.000000	0.000000	1
57.322042	6.315140	0.000000	0.006631	0.007888	0.000000	0.010305	-0.381091	0.000000	0.000000	0.000000	0.000000	0.000000	1
60.431034	6.315140	0.000000	0.006191	0.013602	0.000000	0.014944	0.306816	0.000000	0.000000	0.000000	0.000000	0.000000	1
63.540026	6.315140	0.000000	0.007333	0.014906	0.000000	0.016613	-1.539128	0.000000	0.000000	0.000000	0.000000	0.000000	1
66.649018	6.315140	0.000000	0.008759	0.005224	0.000000	0.010199	1.437925	0.000000	0.000000	0.000000	0.000000	0.000000	1
69.758010	6.315140	0.000000	-0.008291	0.013071	0.000000	0.015479	2.866596	0.000000	0.000000	0.000000	0.000000	0.000000	1
72.867002	6.315140	0.000000	-0.019866	0.011223	0.000000	0.022817	-0.755651	0.000000	0.000000	0.000000	0.000000	0.000000	1
75.975994	6.315140	0.000000	-0.003314	0.002700	0.000000	0.004275	0.550095	0.000000	0.000000	0.000000	0.000000	0.000000	1
79.084987	6.315140	0.000000	0.034134	0.014135	0.000000	0.036945	53.196536	0.000000	0.000000	0.000000	0.000000	0.000000	1
82.193979	6.315140	0.000000	0.033256	0.217062	0.000000	0.219594	200.330610	0.000000	0.000000	0.000000	0.000000	0.000000	2
85.302971	6.315140	0.000000	0.489217	0.839210	0.000000	0.971394	214.210554	0.000000	0.000000	0.000000	0.000000	0.000000	2
88.411963	6.315140	0.000000	0.939207	1.091035	0.000000	1.439607	105.405451	0.000000	0.000000	0.000000	0.000000	0.000000	1
91.520955	6.315140	0.000000	0.567746	0.948687	0.000000	1.105596	-58.786535	0.000000	0.000000	0.000000	0.000000	0.000000	2
94.629947	6.315140	0.000000	0.226301	0.173442	0.000000	0.285121	-118.940659	0.000000	0.000000	0.000000	0.000000	0.000000	2
97.738939	6.315140	0.000000	0.167059	0.083222	0.000000	0.186640	-31.194936	0.000000	0.000000	0.000000	0.000000	0.000000	2
100.847931	6.315140	0.000000	0.097362	0.038229	0.000000	0.104598	-22.045063	0.000000	0.000000	0.000000	0.000000	0.000000	1
103.956923	6.315140	0.000000	0.126894	0.054775	0.000000	0.138212	-29.423845	0.000000	0.000000	0.000000	0.000000	0.000000	1
107.065915	6.315140	0.000000	0.165350	0.096043	0.000000	0.191220	-42.177946	0.000000	0.000000	0.000000	0.000000	0.000000	2
110.174908	6.315140	0.000000	0.027938	0.077440	0.000000	0.082326	-52.616150	0.000000	0.000000	0.000000	0.000000	0.000000	1
113.283900	6.315140	0.000000	-0.025140	-0.001595	0.000000	0.025191	-37.797070	0.000000	0.000000	0.000000	0.000000	0.000000	1
116.392892	6.315140	0.000000	-0.024236	-0.020123	0.000000	0.031501	-7.608708	0.000000	0.000000	0.000000	0.000000	0.000000	1
119.501884	6.315140	0.000000	-0.015537	-0.016999	0.000000	0.023030	4.144098	0.000000	0.000000	0.000000	0.000000	0.000000	1
122.610876	6.315140	0.000000	-0.007008	-0.000414	0.000000	0.007020	2.194362	0.000000	0.000000	0.000000	0.000000	0.000000	1
125.719868	6.315140	0.000000	-0.007013	-0.006957	0.000000	0.009878	0.294688	0.000000	0.000000	0.000000	0.000000	0.000000	1
128.828860	6.315140	0.000000	-0.004404	-0.007191	0.000000	0.008433	2.134578	0.000000	0.000000	0.000000	0.000000	0.000000	1
131.937852	6.315140	0.000000	0.002513	0.001623	0.000000	0.002992	3.656815	0.000000	0.000000	0.000000	0.000000	0.000000	1
135.046844	6.315140	0.000000	0.002111	0.004997	0.000000	0.005425	2.187304	0.000000	0.000000	0.000000	0.000000	0.000000	1
138.155836	6.315140	0.000000	-0.000030	0.006898	0.000000	0.006898	0.043792	0.000000	0.000000	0.000000	0.000000	0.000000	1
141.264829	6.315140	0.000000	-0.003470	0.007360	0.000000	0.008136	-0.547863	0.000000	0.000000	0.000000	0.000000	0.000000	1
144.373821	6.315140	0.000000	-0.004327	0.005200	0.000000	0.006765	-0.492647	0.000000	0.000000	0.000000	0.000000	0.000000	1
147.482813	6.315140	0.000000	-0.003782	0.002583	0.000000	0.004579	-0.139791	0.000000	0.000000	0.000000	0.000000	0.000000	1
150.591805	6.315140	0.000000	-0.003277	0.002441	0.000000	0.004086	-0.183256	0.000000	0.000000	0.000000	0.000000	0.000000	1
153.700797	6.315140	0.000000	-0.000655	0.003952	0.000000	0.004006	-1.464918	0.000000	0.000000	0.000000	0.000000	0.000000	1
156.809789	6.315140	0.000000	-0.002771	-0.004979	0.000000	0.005698	-1.561745	0.000000	0.000000	0.000000	0.000000	0.000000	1
159.918781	6.315140	0.000000	-0.005367	-0.004527	0.000000	0.007021	-0.554327	0.000000	0.000000	0.000000	0.000000	0.000000	1
4.469176	9.424132	0.000000	0.002429	0.007373	0.000000	0.007763	-0.895191	0.000000	0.000000	0.000000	0.000000	0.000000	1
7.578168	9.424132	0.000000	0.001036	0.004488	0.000000	0.004606	-0.188087	0.000000	0.000000	0.000000	0.000000	0.000000	1
10.687160	9.424132	0.000000	-0.001771	0.004398	0.000000	0.004741	0.835491	0.000000	0.000000	0.000000	0.000000	0.000000	1
13.796152	9.424132	0.000000	-0.001595	0.005412	0.000000	0.005642	1.561314	0.000000	0.000000	0.000000	0.000000	0.000000	1
16.905145	9.424132	0.000000	0.006115	0.007949	0.000000	0.010029	1.344389	0.000000	0.000000	0.000000	0.000000	0.000000	1
20.014137	9.424132	0.000000	0.007333	0.008972	0.000000	0.011588	0.241518	0.000000	0.000000	0.000000	0.000000	0.000000	1
23.123129	9.424132	0.000000	0.009898	0.004949	0.000000	0.011066	1.055560	0.000000	0.000000	0.000000	0.000000	0.000000	1
26.232121	9.424132	0.000000	0.010115	0.004028	0.000000	0.010888	3.383219	0.000000	0.000000	0.000000	0.000000	0.000000	1
29.341113	9.424132	0.000000	0.014583	0.018556	0.000000	0.023601	2.623686	0.000000	0.000000	0.000000	0.000000	0.000000	1
32.450105	9.424132	0.000000	0.010479	0.019647	0.000000	0.022267	1.284143	0.000000	0.000000	0.000000	0.000000	0.000000	1
35.559097	9.424132	0.000000	0.009009	0.017060	0.000000	0.019293	1.087218	0.000000	0.000000	0.000000	0.000000	0.000000	1
38.668089	9.424132	0.000000	0.003998	0.012059	0.000000	0.012704	-0.263587	0.000000	0.000000	0.000000	0.000000	0.000000	1
41.777081	9.424132	0.000000	0.002362	0.011759	0.000000	0.011994	-1.245808	0.000000	0.000000	0.000000	0.000000	0.000000	1
44.886073	9.424132	0.000000	0.001605	0.002384	0.000000	0.002874	0.011274	0.000000	0.000000	0.000000	0.000000	0.000000	1
47.995066	9.424132	0.000000	0.004947	-0.000289	0.000000	0.004955	0.737965	0.000000	0.000000	0.000000	0.000000	0.000000	1
51.104058	9.424132	0.000000	0.002938	-0.003108	0.000000	0.004277	0.336102	0.000000	0.000000	0.000000	0.000000	0.000000	1
54.213050	9.424132	0.000000	0.011271	0.011434	0.000000	0.016056	0.610908	0.000000	0.000000	0.000000	0.000000	0.000000	1
57.322042	9.424132	0.000000	0.009712	0.011497	0.000000	0.015050	2.120088	0.000000	0.000000	0.000000	0.000000	0.000000	1
60.431034	9.424132	0.000000	0.001966	0.019453	0.000000	0.019552	4.962514	0.000000	0.000000	0.000000	0.000000	0.000000	1
63.540026	9.424132	0.000000	0.002589	0.019307	0.000000	0.019480	3.694527	0.000000	0.000000	0.000000	0.000000	0.000000	1
66.649018	9.424132	0.000000	0.007469	0.003197	0.000000	0.008125	4.896700	0.000000	0.000000	0.000000	0.000000	0.000000	1
69.758010	9.424132	0.000000	-0.039938	0.029170	0.000000	0.049456	3.494290	0.000000	0.000000	0.000000	0.000000	0.000000	1
72.867002	9.424132	0.000000	-0.022717	0.015154	0.000000	0.027307	-2.389048	0.000000	0.000000	0.000000	0.000000	0.000000	1
75.975994	9.424132	0.000000	-0.002762	0.001355	0.000000	0.003076	0.969897	0.000000	0.000000	0.000000	0.000000	0.000000	1
79.084987	9.424132	0.000000	0.033537	0.014490	0.000000	0.036533	15.991514	0.000000	0.000000	0.000000	0.000000	0.000000	1
82.193979	9.424132	0.000000	0.028746	0.065507	0.000000	0.071537	107.634907	0.000000	0.000000	0.000000	0.000000	0.000000	2
85.302971	9.424132	0.000000	0.128371	0.664455	0.000000	0.676741	165.165709	0.000000	0.000000	0.000000	0.000000	0.000000	2
88.411963	9.424132	0.000000	0.338003	0.762139	0.000000	0.833728	80.564283	0.000000	0.000000	0.000000	0.000000	0.000000	1
91.520955	9.424132	0.000000	0.349117	0.541216	0.000000	0.644048	-43.274425	0.000000	0.000000	0.000000	0.000000	0.000000	2
94.629947	9.424132	0.000000	0.365780	0.253970	0.000000	0.445304	-66.377104	0.000000	0.000000	0.000000	0.000000	0.000000	1
97.738939	9.424132	0.000000	0.184169	0.208327	0.000000	0.278062	-29.105943	0.000000	0.000000	0.000000	0.000000	0.000000	1
100.847931	9.424132	0.000000	0.194180	0.251319	0.000000	0.317596	-34.306797	0.000000	0.000000	0.000000	0.000000	0.000000	1
103.956923	9.424132	0.000000	0.352441	0.293136	0.000000	0.458414	-35.334828	0.000000	0.000000	0.000000	0.000000	0.000000	1
107.065915	9.424132	0.000000	0.354714	0.288645	0.000000	0.457316	-38.389280	0.000000	0.000000	0.000000	0.000000	0.000000	1
110.174908	9.424132	0.000000	0.273583	0.315474	0.000000	0.417578	-71.080408	0.000000	0.000000	0.000000	0.000000	0.000000	1
113.283900	9.424132	0.000000	0.085020	0.124202	0.000000	0.150514	-87.341182	0.000000	0.000000	0.000000	0.000000	0.000000	2
116.392892	9.424132	0.000000	-0.029922	-0.016168	0.000000	0.034011	-45.388756	0.000000	0.000000	0.000000	0.000000	0.000000	1
119.501884	9.424132	0.000000	-0.012636	-0.017091	0.000000	0.021255	-6.285973	0.000000	0.000000	0.000000	0.000000	0.000000	1
122.610876	9.424132	0.000000	-0.006775	-0.007883	0.000000	0.010395	1.021632	0.000000	0.000000	0.000000	0.000000	0.000000	1
125.719868	9.424132	0.000000	-0.005148	-0.006447	0.000000	0.008250	-0.232400	0.000000	0.000000	0.000000	0.000000	0.000000	1
128.828860	9.424132	0.000000	-0.003324	-0.007446	0.000000	0.008154	0.458422	0.000000	0.000000	0.000000	0.000000	0.000000	1
131.937852	9.424132	0.000000	-0.012987	-0.008145	0.000000	0.015330	3.116343	0.000000	0.000000	0.000000	0.000000	0.000000	1
135.046844	9.424132	0.000000	-0.006442	0.005116	0.000000	0.008227	2.809224	0.000000	0.000000	0.000000	0.000000	0.000000	1
138.155836	9.424132	0.000000	-0.005101	0.004776	0.000000	0.006988	0.396677	0.000000	0.000000	0.000000	0.000000	0.000000	1
141.264829	9.424132	0.000000	-0.002724	0.007487	0.000000	0.007967	-0.621703	0.000000	0.000000	0.000000	0.000000	0.000000	1
144.373821	9.424132	0.000000	-0.003542	0.002315	0.000000	0.004231	-1.008022	0.000000	0.000000	0.000000	0.000000	0.000000	1
147.482813	9.424132	0.000000	-0.003866	0.001878	0.000000	0.004298	0.179611	0.000000	0.000000	0.000000	0.000000	0.000000	1
150.591805	9.424132	0.000000	-0.003335	0.002067	0.000000	0.003924	1.156032	0.000000	0.000000	0.000000	0.000000	0.000000	1
153.700797	9.424132	0.000000	0.000982	0.003817	0.000000	0.003941	0.046374	0.000000	0.000000	0.000000	0.000000	0.000000	1
156.809789	9.424132	0.000000	-0.000630	0.000879	0.000000	0.001081	-0.809409	0.000000	0.000000	0.000000	0.000000	0.000000	1
159.918781	9.424132	0.000000	-0.003209	0.001909	0.000000	0.003734	-0.351262	0.000000	0.000000	0.000000	0.000000	0.000000	1
4.469176	12.533124	0.000000	0.001083	0.009181	0.000000	0.009245	-0.991848	0.000000	0.000000	0.000000	0.000000	0.000000	1
7.578168	12.533124	0.000000	-0.000044	0.003397	0.000000	0.003398	-0.217637	0.000000	0.000000	0.000000	0.000000	0.000000	1
10.687160	12.533124	0.000000	-0.003166	0.004941	0.000000	0.005868	0.353147	0.000000	0.000000	0.000000	0.000000	0.000000	1
13.796152	12.533124	0.000000	-0.003907	0.005825	0.000000	0.007014	0.099648	0.000000	0.000000	0.000000	0.000000	0.000000	1
16.905145	12.533124	0.000000	0.003538	0.007453	0.000000	0.008250	0.532392	0.000000	0.000000	0.000000	0.000000	0.000000	1
20.014137	12.533124	0.000000	0.007875	0.011475	0.000000	0.013917	-0.453938	0.000000	0.000000	0.000000	0.000000	0.000000	1
23.123129	12.533124	0.000000	0.008126	0.004275	0.000000	0.009182	-1.704583	0.000000	0.000000	0.000000	0.000000	0.000000	1
26.232121	12.533124	0.000000	0.007003	0.002819	0.000000	0.007549	1.188697	0.000000	0.000000	0.000000	0.000000	0.000000	1
29.341113	12.533124	0.000000	-0.000462	0.014916	0.000000	0.014923	3.010398	0.000000	0.000000	0.000000	0.000000	0.000000	1
32.450105	12.533124	0.000000	0.003790	0.016571	0.000000	0.016999	2.580061	0.000000	0.000000	0.000000	0.000000	0.000000	1
35.559097	12.533124	0.000000	-0.003096	0.024419	0.000000	0.024615	2.175383	0.000000	0.000000	0.000000	0.000000	0.000000	1
38.668089	12.533124	0.000000	-0.007888	0.024842	0.000000	0.026064	-1.073773	0.000000	0.000000	0.000000	0.000000	0.000000	1
41.777081	12.533124	0.000000	0.007404	0.008362	0.000000	0.011169	0.374169	0.000000	0.000000	0.000000	0.000000	0.000000	1
44.886073	12.533124	0.000000	0.005059	0.024598	0.000000	0.025113	5.618286	0.000000	0.000000	0.000000	0.000000	0.000000	2
47.995066	12.533124	0.000000	-0.010497	0.037182	0.000000	0.038635	7.036413	0.000000	0.000000	0.000000	0.000000	0.000000	2
51.104058	12.533124	0.000000	0.013728	0.039248	0.000000	0.041580	4.383280	0.000000	0.000000	0.000000	0.000000	0.000000	1
54.213050	12.533124	0.000000	0.011637	0.013067	0.000000	0.017498	1.474740	0.000000	0.000000	0.000000	0.000000	0.000000	1
57.322042	12.533124	0.000000	-0.006335	0.004111	0.000000	0.007552	3.381234	0.000000	0.000000	0.000000	0.000000	0.000000	1
60.431034	12.533124	0.000000	-0.011400	-0.001211	0.000000	0.011464	8.812518	0.000000	0.000000	0.000000	0.000000	0.000000	2
63.540026	12.533124	0.000000	-0.017442	0.031975	0.000000	0.036423	7.834397	0.000000	0.000000	0.000000	0.000000	0.000000	1
66.649018	12.533124	0.000000	-0.017919	0.037750	0.000000	0.041787	0.323625	0.000000	0.000000	0.000000	0.000000	0.000000	1
69.758010	12.533124	0.000000	-0.036224	0.029812	0.000000	0.046914	-5.973261	0.000000	0.000000	0.000000	0.000000	0.000000	1
72.867002	12.533124	0.000000	-0.019982	0.012087	0.000000	0.023353	-4.953335	0.000000	0.000000	0.000000	0.000000	0.000000	1
75.975994	12.533124	0.000000	0.000719	0.012260	0.000000	0.012281	1.954415	0.000000	0.000000	0.000000	0.000000	0.000000	1
79.084987	12.533124	0.000000	0.016513	0.024956	0.000000	0.029925	5.921123	0.000000	0.000000	0.000000	0.000000	0.000000	2
82.193979	12.533124	0.000000	0.022549	0.025421	0.000000	0.033980	42.167794	0.000000	0.000000	0.000000	0.000000	0.000000	1
85.302971	12.533124	0.000000	0.063141	0.111937	0.000000	0.128517	81.959666	0.000000	0.000000	0.000000	0.000000	0.000000	2
88.411963	12.533124	0.000000	0.319549	0.383666	0.000000	0.499311	45.012376	0.000000	0.000000	0.000000	0.000000	0.000000	2
91.520955	12.533124	0.000000	0.343568	0.363162	0.000000	0.499926	-10.757311	0.000000	0.000000	0.000000	0.000000	0.000000	1
94.629947	12.533124	0.000000	0.308806	0.255770	0.000000	0.400973	-9.430104	0.000000	0.000000	0.000000	0.000000	0.000000	1
97.738939	12.533124	0.000000	0.319415	0.336665	0.000000	0.464079	-11.636120	0.000000	0.000000	0.000000	0.000000	0.000000	1
100.847931	12.533124	0.000000	0.377236	0.339454	0.000000	0.507481	-27.086075	0.000000	0.000000	0.000000	0.000000	0.000000	1
103.956923	12.533124	0.000000	0.387629	0.315054	0.000000	0.499515	-14.853980	0.000000	0.000000	0.000000	0.000000	0.000000	1
107.065915	12.533124	0.000000	0.393369	0.357502	0.000000	0.531551	-10.092953	0.000000	0.000000	0.000000	0.000000	0.000000	1
110.174908	12.533124	0.000000	0.385281	0.367010	0.000000	0.532106	-38.936775	0.000000	0.000000	0.000000	0.000000	0.000000	1
113.283900	12.533124	0.000000	0.322957	0.306915	0.000000	0.445531	-75.958484	0.000000	0.000000	0.000000	0.000000	0.000000	1
116.392892	12.533124	0.000000	0.055728	0.089008	0.000000	0.105014	-60.040895	0.000000	0.000000	0.000000	0.000000	0.000000	2
119.501884	12.533124	0.000000	-0.007282	-0.007723	0.000000	0.010615	-14.921788	0.000000	0.000000	0.000000	0.000000	0.000000	1
122.610876	12.533124	0.000000	-0.007015	-0.007146	0.000000	0.010014	1.057920	0.000000	0.000000	0.000000	0.000000	0.000000	1
125.719868	12.533124	0.000000	-0.004350	-0.002737	0.000000	0.005139	0.804957	0.000000	0.000000	0.000000	0.000000	0.000000	1
128.828860	12.533124	0.000000	-0.005241	-0.002542	0.000000	0.005825	-0.217256	0.000000	0.000000	0.000000	0.000000	0.000000	1
131.937852	12.533124	0.000000	-0.006793	-0.004836	0.000000	0.008338	0.682035	0.000000	0.000000	0.000000	0.000000	0.000000	1
135.046844	12.533124	0.000000	-0.008781	0.007315	0.000000	0.011429	0.303551	0.000000	0.000000	0.000000	0.000000	0.000000	1
138.155836	12.533124	0.000000	-0.001014	0.001844	0.000000	0.002105	-1.007842	0.000000	0.000000	0.000000	0.000000	0.000000	1
141.264829	12.533124	0.000000	0.000370	0.001056	0.000000	0.001119	-0.410719	0.000000	0.000000	0.000000	0.000000	0.000000	1
144.373821	12.533124	0.000000	-0.002580	0.001444	0.000000	0.002957	0.362606	0.000000	0.000000	0.000000	0.000000	0.000000	1
147.482813	12.533124	0.000000	-0.002870	0.000224	0.000000	0.002879	0.978057	0.000000	0.000000	0.000000	0.000000	0.000000	1
150.591805	12.533124	0.000000	-0.008091	0.007920	0.000000	0.011323	1.005621	0.000000	0.000000	0.000000	0.000000	0.000000	1
153.700797	12.533124	0.000000	-0.007832	0.007835	0.000000	0.011078	0.478727	0.000000	0.000000	0.000000	0.000000	0.000000	1
156.809789	12.533124	0.000000	-0.000822	0.001651	0.000000	0.001845	0.290260	0.000000	0.000000	0.000000	0.000000	0.000000	1
159.918781	12.533124	0.000000	-0.000930	0.001156	0.000000	0.001484	0.729769	0.000000	0.000000	0.000000	0.000000	0.000000	1
4.469176	15.642117	0.000000	0.000362	0.002023	0.000000	0.002055	-0.715884	0.000000	0.000000	0.000000	0.000000	0.000000	1
7.578168	15.642117	0.000000	0.000324	0.001361	0.000000	0.001399	-0.268654	0.000000	0.000000	0.000000	0.000000	0.000000	1
10.687160	15.642117	0.000000	-0.002106	0.004239	0.000000	0.004733	-0.345134	0.000000	0.000000	0.000000	0.000000	0.000000	1
13.796152	15.642117	0.000000	0.000719	0.005296	0.000000	0.005344	-0.791089	0.000000	0.000000	0.000000	0.000000	0.000000	1
16.905145	15.642117	0.000000	0.008599	0.004918	0.000000	0.009906	0.359684	0.000000	0.000000	0.000000	0.000000	0.000000	1
20.014137	15.642117	0.000000	0.007236	0.010863	0.000000	0.013052	-0.670332	0.000000	0.000000	0.000000	0.000000	0.000000	1
23.123129	15.642117	0.000000	0.017833	0.013207	0.000000	0.022191	-2.725771	0.000000	0.000000	0.000000	0.000000	0.000000	1
26.232121	15.642117	0.000000	0.014864	0.011244	0.000000	0.018638	-1.376445	0.000000	0.000000	0.000000	0.000000	0.000000	1
29.341113	15.642117	0.000000	0.002971	0.013705	0.000000	0.014023	-1.287681	0.000000	0.000000	0.000000	0.000000	0.000000	1
32.450105	15.642117	0.000000	0.006215	0.020258	0.000000	0.021189	-1.805122	0.000000	0.000000	0.000000	0.000000	0.000000	1
35.559097	15.642117	0.000000	-0.002683	0.028534	0.000000	0.028660	-2.127322	0.000000	0.000000	0.000000	0.000000	0.000000	1
38.668089	15.642117	0.000000	-0.007236	0.026528	0.000000	0.027497	-3.585325	0.000000	0.000000	0.000000	0.000000	0.000000	1
41.777081	15.642117	0.000000	0.011616	0.014337	0.000000	0.018452	2.453179	0.000000	0.000000	0.000000	0.000000	0.000000	1
44.886073	15.642117	0.000000	-0.003965	0.047699	0.000000	0.047864	8.270100	0.000000	0.000000	0.000000	0.000000	0.000000	1
47.995066	15.642117	0.000000	-0.040769	0.060880	0.000000	0.073270	6.569124	0.000000	0.000000	0.000000	0.000000	0.000000	1
51.104058	15.642117	0.000000	-0.040058	0.058903	0.000000	0.071234	3.733873	0.000000	0.000000	0.000000	0.000000	0.000000	1
54.213050	15.642117	0.000000	-0.018811	0.044618	0.000000	0.048421	0.102345	0.000000	0.000000	0.000000	0.000000	0.000000	2
57.322042	15.642117	0.000000	-0.027374	0.011008	0.000000	0.029505	0.157097	0.000000	0.000000	0.000000	0.000000	0.000000	1
60.431034	15.642117	0.000000	-0.033031	0.010002	0.000000	0.034512	5.985338	0.000000	0.000000	0.000000	0.000000	0.000000	1
63.540026	15.642117	0.000000	-0.010423	0.046563	0.000000	0.047715	5.231299	0.000000	0.000000	0.000000	0.000000	0.000000	1
66.649018	15.642117	0.000000	-0.005698	0.069007	0.000000	0.069242	-4.623729	0.000000	0.000000	0.000000	0.000000	0.000000	1
69.758010	15.642117	0.000000	0.004944	0.054611	0.000000	0.054835	-9.121811	0.000000	0.000000	0.000000	0.000000	0.000000	2
72.867002	15.642117	0.000000	-0.015705	0.043417	0.000000	0.046170	-3.998623	0.000000	0.000000	0.000000	0.000000	0.000000	1
75.975994	15.642117	0.000000	-0.011470	0.044529	0.000000	0.045982	2.315590	0.000000	0.000000	0.000000	0.000000	0.000000	1
79.084987	15.642117	0.000000	0.009806	0.032819	0.000000	0.034253	4.008471	0.000000	0.000000	0.000000	0.000000	0.000000	1
82.193979	15.642117	0.000000	0.000219	0.016629	0.000000	0.016631	14.294200	0.000000	0.000000	0.000000	0.000000	0.000000	1
85.302971	15.642117	0.000000	0.051925	0.100461	0.000000	0.113087	44.860768	0.000000	0.000000	0.000000	0.000000	0.000000	2
88.411963	15.642117	0.000000	0.120516	0.243101	0.000000	0.271334	50.503228	0.000000	0.000000	0.000000	0.000000	0.000000	2
91.520955	15.642117	0.000000	0.266362	0.246620	0.000000	0.363002	32.718465	0.000000	0.000000	0.000000	0.000000	0.000000	1
94.629947	15.642117	0.000000	0.288105	0.278835	0.000000	0.400940	25.832099	0.000000	0.000000	0.000000	0.000000	0.000000	1
97.738939	15.642117	0.000000	0.354849	0.330534	0.000000	0.484944	10.420562	0.000000	0.000000	0.000000	0.000000	0.000000	1
100.847931	15.642117	0.000000	0.406654	0.300862	0.000000	0.505851	-1.332808	0.000000	0.000000	0.000000	0.000000	0.000000	1
103.956923	15.642117	0.000000	0.436633	0.295081	0.000000	0.526993	-5.995722	0.000000	0.000000	0.000000	0.000000	0.000000	1
107.065915	15.642117	0.000000	0.428263	0.312400	0.000000	0.530097	-14.600308	0.000000	0.000000	0.000000	0.000000	0.000000	1
110.174908	15.642117	0.000000	0.429058	0.304567	0.000000	0.526167	-24.167247	0.000000	0.000000	0.000000	0.000000	0.000000	1
113.283900	15.642117	0.000000	0.383325	0.292387	0.000000	0.482108	-38.329335	0.000000	0.000000	0.000000	0.000000	0.000000	1
116.392892	15.642117	0.000000	0.045964	0.130945	0.000000	0.138778	-43.421149	0.000000	0.000000	0.000000	0.000000	0.000000	2
119.501884	15.642117	0.000000	-0.020458	0.011876	0.000000	0.023655	-21.715320	0.000000	0.000000	0.000000	0.000000	0.000000	1
122.610876	15.642117	0.000000	-0.013718	-0.002865	0.000000	0.014014	-1.032232	0.000000	0.000000	0.000000	0.000000	0.000000	1