TITLE = "PIV Result  419 "
VARIABLES = "X (mm)""Y (mm)""Z (mm)""U (m/s)""V (m/s)""W (m/s)""Speed (m/s)""Vorticity""U-std""V-std""W-std""Speed-std""Vorticity-std""Flag"
ZONE T="ZONE 419 "
I= 51 , J= 16 , K= 1 , F=POINT
DT=(DOUBLE DOUBLE DOUBLE DOUBLE DOUBLE DOUBLE DOUBLE DOUBLE DOUBLE DOUBLE DOUBLE DOUBLE DOUBLE DOUBLE)
4.469176	3.206148	0.000000	-0.000850	0.010074	0.000000	0.010109	1.899383	0.000000	0.000000	0.000000	0.000000	0.000000	2
7.578168	3.206148	0.000000	0.011933	0.014801	0.000000	0.019013	0.997149	0.000000	0.000000	0.000000	0.000000	0.000000	1
10.687160	3.206148	0.000000	0.011382	0.014239	0.000000	0.018229	-0.052746	0.000000	0.000000	0.000000	0.000000	0.000000	1
13.796152	3.206148	0.000000	0.010032	0.008831	0.000000	0.013365	0.564986	0.000000	0.000000	0.000000	0.000000	0.000000	1
16.905145	3.206148	0.000000	0.000590	0.007036	0.000000	0.007061	-0.165761	0.000000	0.000000	0.000000	0.000000	0.000000	1
20.014137	3.206148	0.000000	-0.011677	0.005313	0.000000	0.012828	-1.907119	0.000000	0.000000	0.000000	0.000000	0.000000	1
23.123129	3.206148	0.000000	0.000573	0.005389	0.000000	0.005419	-0.751138	0.000000	0.000000	0.000000	0.000000	0.000000	1
26.232121	3.206148	0.000000	0.008790	0.011350	0.000000	0.014355	0.390027	0.000000	0.000000	0.000000	0.000000	0.000000	1
29.341113	3.206148	0.000000	0.006964	0.008260	0.000000	0.010804	1.084898	0.000000	0.000000	0.000000	0.000000	0.000000	1
32.450105	3.206148	0.000000	0.007038	0.011921	0.000000	0.013844	-2.234580	0.000000	0.000000	0.000000	0.000000	0.000000	1
35.559097	3.206148	0.000000	0.001864	-0.001586	0.000000	0.002448	-7.512480	0.000000	0.000000	0.000000	0.000000	0.000000	1
38.668089	3.206148	0.000000	0.000165	-0.000675	0.000000	0.000695	-4.937743	0.000000	0.000000	0.000000	0.000000	0.000000	1
41.777081	3.206148	0.000000	0.001186	-0.000281	0.000000	0.001219	-0.696705	0.000000	0.000000	0.000000	0.000000	0.000000	1
44.886073	3.206148	0.000000	0.001602	-0.000621	0.000000	0.001718	-0.902975	0.000000	0.000000	0.000000	0.000000	0.000000	1
47.995066	3.206148	0.000000	0.000351	0.000291	0.000000	0.000456	-2.255587	0.000000	0.000000	0.000000	0.000000	0.000000	1
51.104058	3.206148	0.000000	-0.000949	0.001029	0.000000	0.001400	-2.107677	0.000000	0.000000	0.000000	0.000000	0.000000	1
54.213050	3.206148	0.000000	0.000923	0.001280	0.000000	0.001579	-1.544043	0.000000	0.000000	0.000000	0.000000	0.000000	1
57.322042	3.206148	0.000000	0.003451	0.000519	0.000000	0.003490	1.349403	0.000000	0.000000	0.000000	0.000000	0.000000	1
60.431034	3.206148	0.000000	0.001043	0.000137	0.000000	0.001052	1.147034	0.000000	0.000000	0.000000	0.000000	0.000000	1
63.540026	3.206148	0.000000	-0.010518	-0.001984	0.000000	0.010703	-0.828688	0.000000	0.000000	0.000000	0.000000	0.000000	1
66.649018	3.206148	0.000000	-0.004320	-0.001581	0.000000	0.004600	1.341046	0.000000	0.000000	0.000000	0.000000	0.000000	1
69.758010	3.206148	0.000000	0.000573	-0.001347	0.000000	0.001464	0.252270	0.000000	0.000000	0.000000	0.000000	0.000000	1
72.867002	3.206148	0.000000	0.000883	-0.006842	0.000000	0.006899	-3.690293	0.000000	0.000000	0.000000	0.000000	0.000000	2
75.975994	3.206148	0.000000	0.002048	-0.003929	0.000000	0.004431	-6.095230	0.000000	0.000000	0.000000	0.000000	0.000000	2
79.084987	3.206148	0.000000	-0.001578	0.002258	0.000000	0.002755	-10.527059	0.000000	0.000000	0.000000	0.000000	0.000000	1
82.193979	3.206148	0.000000	0.016777	-0.021110	0.000000	0.026964	11.915786	0.000000	0.000000	0.000000	0.000000	0.000000	1
85.302971	3.206148	0.000000	0.162845	0.128166	0.000000	0.207231	50.033903	0.000000	0.000000	0.000000	0.000000	0.000000	2
88.411963	3.206148	0.000000	0.264804	0.400737	0.000000	0.480324	39.569062	0.000000	0.000000	0.000000	0.000000	0.000000	1
91.520955	3.206148	0.000000	0.204859	0.407193	0.000000	0.455822	-7.697654	0.000000	0.000000	0.000000	0.000000	0.000000	1
94.629947	3.206148	0.000000	0.208701	0.328101	0.000000	0.388853	-55.009441	0.000000	0.000000	0.000000	0.000000	0.000000	1
97.738939	3.206148	0.000000	0.037845	0.107922	0.000000	0.114365	-70.017628	0.000000	0.000000	0.000000	0.000000	0.000000	2
100.847931	3.206148	0.000000	-0.002131	-0.002809	0.000000	0.003526	-37.236515	0.000000	0.000000	0.000000	0.000000	0.000000	1
103.956923	3.206148	0.000000	-0.000811	-0.000426	0.000000	0.000917	-5.289745	0.000000	0.000000	0.000000	0.000000	0.000000	1
107.065915	3.206148	0.000000	-0.002062	0.000045	0.000000	0.002062	1.239684	0.000000	0.000000	0.000000	0.000000	0.000000	1
110.174908	3.206148	0.000000	-0.003955	0.000603	0.000000	0.004001	1.892367	0.000000	0.000000	0.000000	0.000000	0.000000	1
113.283900	3.206148	0.000000	-0.003109	0.000081	0.000000	0.003110	3.561697	0.000000	0.000000	0.000000	0.000000	0.000000	1
116.392892	3.206148	0.000000	-0.002754	-0.000889	0.000000	0.002894	3.957664	0.000000	0.000000	0.000000	0.000000	0.000000	1
119.501884	3.206148	0.000000	-0.000950	-0.000205	0.000000	0.000972	1.916159	0.000000	0.000000	0.000000	0.000000	0.000000	1
122.610876	3.206148	0.000000	-0.000250	-0.000095	0.000000	0.000267	0.625348	0.000000	0.000000	0.000000	0.000000	0.000000	1
125.719868	3.206148	0.000000	-0.000703	-0.000306	0.000000	0.000767	0.748825	0.000000	0.000000	0.000000	0.000000	0.000000	1
128.828860	3.206148	0.000000	0.000281	-0.000038	0.000000	0.000283	1.663390	0.000000	0.000000	0.000000	0.000000	0.000000	1
131.937852	3.206148	0.000000	0.000748	0.000057	0.000000	0.000750	2.527492	0.000000	0.000000	0.000000	0.000000	0.000000	1
135.046844	3.206148	0.000000	-0.000332	0.004116	0.000000	0.004129	2.167020	0.000000	0.000000	0.000000	0.000000	0.000000	1
138.155836	3.206148	0.000000	-0.001271	0.004053	0.000000	0.004248	1.331754	0.000000	0.000000	0.000000	0.000000	0.000000	1
141.264829	3.206148	0.000000	0.000038	0.004155	0.000000	0.004155	0.123486	0.000000	0.000000	0.000000	0.000000	0.000000	1
144.373821	3.206148	0.000000	-0.005154	0.007573	0.000000	0.009161	-1.239925	0.000000	0.000000	0.000000	0.000000	0.000000	1
147.482813	3.206148	0.000000	-0.004879	0.006371	0.000000	0.008025	-1.951274	0.000000	0.000000	0.000000	0.000000	0.000000	1
150.591805	3.206148	0.000000	-0.005587	0.002352	0.000000	0.006062	-1.036285	0.000000	0.000000	0.000000	0.000000	0.000000	1
153.700797	3.206148	0.000000	-0.005864	0.002418	0.000000	0.006343	1.079505	0.000000	0.000000	0.000000	0.000000	0.000000	1
156.809789	3.206148	0.000000	-0.004619	0.006787	0.000000	0.008209	1.339946	0.000000	0.000000	0.000000	0.000000	0.000000	1
159.918781	3.206148	0.000000	-0.004064	0.006839	0.000000	0.007956	0.509645	0.000000	0.000000	0.000000	0.000000	0.000000	1
4.469176	6.315140	0.000000	0.002222	0.003746	0.000000	0.004356	2.670939	0.000000	0.000000	0.000000	0.000000	0.000000	1
7.578168	6.315140	0.000000	0.012086	0.014054	0.000000	0.018536	1.998277	0.000000	0.000000	0.000000	0.000000	0.000000	1
10.687160	6.315140	0.000000	0.008512	0.012488	0.000000	0.015113	0.764768	0.000000	0.000000	0.000000	0.000000	0.000000	1
13.796152	6.315140	0.000000	0.002430	0.006177	0.000000	0.006638	0.455229	0.000000	0.000000	0.000000	0.000000	0.000000	1
16.905145	6.315140	0.000000	-0.001680	0.006370	0.000000	0.006588	-0.323953	0.000000	0.000000	0.000000	0.000000	0.000000	1
20.014137	6.315140	0.000000	0.000853	0.008020	0.000000	0.008065	-1.128273	0.000000	0.000000	0.000000	0.000000	0.000000	1
23.123129	6.315140	0.000000	0.004974	0.011492	0.000000	0.012522	-0.431944	0.000000	0.000000	0.000000	0.000000	0.000000	1
26.232121	6.315140	0.000000	0.004001	0.009185	0.000000	0.010018	-0.323448	0.000000	0.000000	0.000000	0.000000	0.000000	1
29.341113	6.315140	0.000000	0.002040	0.003371	0.000000	0.003940	1.038674	0.000000	0.000000	0.000000	0.000000	0.000000	1
32.450105	6.315140	0.000000	0.016806	0.017237	0.000000	0.024074	0.437208	0.000000	0.000000	0.000000	0.000000	0.000000	1
35.559097	6.315140	0.000000	0.021814	0.019989	0.000000	0.029588	-4.714382	0.000000	0.000000	0.000000	0.000000	0.000000	1
38.668089	6.315140	0.000000	0.004466	-0.009624	0.000000	0.010609	-3.915617	0.000000	0.000000	0.000000	0.000000	0.000000	1
41.777081	6.315140	0.000000	0.005901	-0.009455	0.000000	0.011145	1.843126	0.000000	0.000000	0.000000	0.000000	0.000000	1
44.886073	6.315140	0.000000	0.007239	0.001026	0.000000	0.007311	0.931023	0.000000	0.000000	0.000000	0.000000	0.000000	1
47.995066	6.315140	0.000000	0.008501	0.002883	0.000000	0.008976	-1.956526	0.000000	0.000000	0.000000	0.000000	0.000000	1
51.104058	6.315140	0.000000	0.010547	0.004757	0.000000	0.011570	0.267451	0.000000	0.000000	0.000000	0.000000	0.000000	1
54.213050	6.315140	0.000000	0.010440	0.016340	0.000000	0.019391	0.671091	0.000000	0.000000	0.000000	0.000000	0.000000	1
57.322042	6.315140	0.000000	0.004765	0.017910	0.000000	0.018533	0.114913	0.000000	0.000000	0.000000	0.000000	0.000000	1
60.431034	6.315140	0.000000	-0.011515	0.033851	0.000000	0.035756	-2.193990	0.000000	0.000000	0.000000	0.000000	0.000000	1
63.540026	6.315140	0.000000	-0.017735	0.003657	0.000000	0.018108	-3.107340	0.000000	0.000000	0.000000	0.000000	0.000000	1
66.649018	6.315140	0.000000	-0.014367	-0.011776	0.000000	0.018576	2.689082	0.000000	0.000000	0.000000	0.000000	0.000000	1
69.758010	6.315140	0.000000	0.005094	-0.003091	0.000000	0.005959	3.298913	0.000000	0.000000	0.000000	0.000000	0.000000	1
72.867002	6.315140	0.000000	0.004247	-0.001016	0.000000	0.004367	-2.828868	0.000000	0.000000	0.000000	0.000000	0.000000	1
75.975994	6.315140	0.000000	0.026605	-0.010594	0.000000	0.028637	-4.200618	0.000000	0.000000	0.000000	0.000000	0.000000	1
79.084987	6.315140	0.000000	0.032629	0.000771	0.000000	0.032638	-0.724062	0.000000	0.000000	0.000000	0.000000	0.000000	1
82.193979	6.315140	0.000000	0.055092	0.006961	0.000000	0.055530	27.876089	0.000000	0.000000	0.000000	0.000000	0.000000	1
85.302971	6.315140	0.000000	0.256074	0.227115	0.000000	0.342279	76.693963	0.000000	0.000000	0.000000	0.000000	0.000000	1
88.411963	6.315140	0.000000	0.255519	0.422824	0.000000	0.494035	65.016041	0.000000	0.000000	0.000000	0.000000	0.000000	1
91.520955	6.315140	0.000000	0.179842	0.489810	0.000000	0.521783	-14.602481	0.000000	0.000000	0.000000	0.000000	0.000000	1
94.629947	6.315140	0.000000	0.230386	0.362098	0.000000	0.429177	-72.662503	0.000000	0.000000	0.000000	0.000000	0.000000	1
97.738939	6.315140	0.000000	0.103578	0.189069	0.000000	0.215582	-83.680765	0.000000	0.000000	0.000000	0.000000	0.000000	2
100.847931	6.315140	0.000000	0.049226	0.026775	0.000000	0.056036	-47.714742	0.000000	0.000000	0.000000	0.000000	0.000000	1
103.956923	6.315140	0.000000	-0.004045	-0.000443	0.000000	0.004069	-6.095943	0.000000	0.000000	0.000000	0.000000	0.000000	1
107.065915	6.315140	0.000000	-0.005387	-0.000297	0.000000	0.005396	0.442366	0.000000	0.000000	0.000000	0.000000	0.000000	1
110.174908	6.315140	0.000000	-0.006110	0.001905	0.000000	0.006400	0.258201	0.000000	0.000000	0.000000	0.000000	0.000000	1
113.283900	6.315140	0.000000	-0.018250	0.000425	0.000000	0.018255	-0.660754	0.000000	0.000000	0.000000	0.000000	0.000000	1
116.392892	6.315140	0.000000	-0.020922	-0.002914	0.000000	0.021124	-0.667290	0.000000	0.000000	0.000000	0.000000	0.000000	1
119.501884	6.315140	0.000000	-0.002043	-0.002642	0.000000	0.003339	0.070415	0.000000	0.000000	0.000000	0.000000	0.000000	1
122.610876	6.315140	0.000000	-0.002233	-0.002216	0.000000	0.003146	0.159864	0.000000	0.000000	0.000000	0.000000	0.000000	1
125.719868	6.315140	0.000000	-0.002771	-0.001890	0.000000	0.003354	0.282837	0.000000	0.000000	0.000000	0.000000	0.000000	1
128.828860	6.315140	0.000000	-0.002067	-0.001426	0.000000	0.002511	2.243047	0.000000	0.000000	0.000000	0.000000	0.000000	1
131.937852	6.315140	0.000000	-0.003674	0.007246	0.000000	0.008125	2.816381	0.000000	0.000000	0.000000	0.000000	0.000000	1
135.046844	6.315140	0.000000	-0.006236	0.008756	0.000000	0.010750	1.350363	0.000000	0.000000	0.000000	0.000000	0.000000	1
138.155836	6.315140	0.000000	-0.006605	0.008637	0.000000	0.010873	0.728086	0.000000	0.000000	0.000000	0.000000	0.000000	1
141.264829	6.315140	0.000000	-0.000100	0.008570	0.000000	0.008571	-0.114977	0.000000	0.000000	0.000000	0.000000	0.000000	1
144.373821	6.315140	0.000000	-0.000722	0.005476	0.000000	0.005524	-0.888635	0.000000	0.000000	0.000000	0.000000	0.000000	1
147.482813	6.315140	0.000000	-0.001440	0.003101	0.000000	0.003419	-1.097839	0.000000	0.000000	0.000000	0.000000	0.000000	1
150.591805	6.315140	0.000000	-0.000807	0.002520	0.000000	0.002646	-0.639385	0.000000	0.000000	0.000000	0.000000	0.000000	1
153.700797	6.315140	0.000000	-0.010199	0.002829	0.000000	0.010584	0.504735	0.000000	0.000000	0.000000	0.000000	0.000000	1
156.809789	6.315140	0.000000	-0.006176	0.006064	0.000000	0.008655	1.080813	0.000000	0.000000	0.000000	0.000000	0.000000	1
159.918781	6.315140	0.000000	-0.005325	0.006362	0.000000	0.008296	0.910722	0.000000	0.000000	0.000000	0.000000	0.000000	1
4.469176	9.424132	0.000000	0.002363	0.003727	0.000000	0.004413	2.593443	0.000000	0.000000	0.000000	0.000000	0.000000	1
7.578168	9.424132	0.000000	0.004674	0.007555	0.000000	0.008884	2.237627	0.000000	0.000000	0.000000	0.000000	0.000000	1
10.687160	9.424132	0.000000	-0.000484	0.008609	0.000000	0.008622	1.312246	0.000000	0.000000	0.000000	0.000000	0.000000	1
13.796152	9.424132	0.000000	0.000241	0.007518	0.000000	0.007521	0.432401	0.000000	0.000000	0.000000	0.000000	0.000000	1
16.905145	9.424132	0.000000	0.002919	0.010249	0.000000	0.010657	-0.544935	0.000000	0.000000	0.000000	0.000000	0.000000	1
20.014137	9.424132	0.000000	0.003660	0.009496	0.000000	0.010177	-0.488165	0.000000	0.000000	0.000000	0.000000	0.000000	1
23.123129	9.424132	0.000000	0.005053	0.011074	0.000000	0.012173	-0.300618	0.000000	0.000000	0.000000	0.000000	0.000000	1
26.232121	9.424132	0.000000	0.003497	0.009389	0.000000	0.010019	-1.178979	0.000000	0.000000	0.000000	0.000000	0.000000	1
29.341113	9.424132	0.000000	0.002759	0.006089	0.000000	0.006684	0.499614	0.000000	0.000000	0.000000	0.000000	0.000000	1
32.450105	9.424132	0.000000	0.012050	0.009856	0.000000	0.015567	2.729049	0.000000	0.000000	0.000000	0.000000	0.000000	1
35.559097	9.424132	0.000000	0.012170	0.009696	0.000000	0.015560	-1.100048	0.000000	0.000000	0.000000	0.000000	0.000000	1
38.668089	9.424132	0.000000	0.005296	-0.010330	0.000000	0.011609	-1.292295	0.000000	0.000000	0.000000	0.000000	0.000000	1
41.777081	9.424132	0.000000	0.004197	-0.006533	0.000000	0.007765	9.085253	0.000000	0.000000	0.000000	0.000000	0.000000	1
44.886073	9.424132	0.000000	0.015552	0.039262	0.000000	0.042230	10.130243	0.000000	0.000000	0.000000	0.000000	0.000000	1
47.995066	9.424132	0.000000	0.021327	0.043264	0.000000	0.048235	1.612271	0.000000	0.000000	0.000000	0.000000	0.000000	1
51.104058	9.424132	0.000000	-0.007457	0.030880	0.000000	0.031768	3.212927	0.000000	0.000000	0.000000	0.000000	0.000000	2
54.213050	9.424132	0.000000	0.000878	0.029926	0.000000	0.029939	5.368280	0.000000	0.000000	0.000000	0.000000	0.000000	2
57.322042	9.424132	0.000000	0.014000	0.025726	0.000000	0.029289	2.391407	0.000000	0.000000	0.000000	0.000000	0.000000	1
60.431034	9.424132	0.000000	0.005126	0.024039	0.000000	0.024580	0.893816	0.000000	0.000000	0.000000	0.000000	0.000000	1
63.540026	9.424132	0.000000	-0.023440	0.007956	0.000000	0.024754	-1.976400	0.000000	0.000000	0.000000	0.000000	0.000000	1
66.649018	9.424132	0.000000	-0.023485	-0.001202	0.000000	0.023515	2.566759	0.000000	0.000000	0.000000	0.000000	0.000000	1
69.758010	9.424132	0.000000	-0.006429	0.029446	0.000000	0.030139	7.317219	0.000000	0.000000	0.000000	0.000000	0.000000	1
72.867002	9.424132	0.000000	-0.001940	0.028600	0.000000	0.028666	1.888390	0.000000	0.000000	0.000000	0.000000	0.000000	1
75.975994	9.424132	0.000000	0.032272	-0.005750	0.000000	0.032780	4.717430	0.000000	0.000000	0.000000	0.000000	0.000000	1
79.084987	9.424132	0.000000	0.031491	0.002143	0.000000	0.031563	17.904844	0.000000	0.000000	0.000000	0.000000	0.000000	1
82.193979	9.424132	0.000000	0.039737	0.077635	0.000000	0.087214	42.342486	0.000000	0.000000	0.000000	0.000000	0.000000	2
85.302971	9.424132	0.000000	0.118593	0.151620	0.000000	0.192491	103.168061	0.000000	0.000000	0.000000	0.000000	0.000000	2
88.411963	9.424132	0.000000	0.196260	0.597509	0.000000	0.628916	114.688088	0.000000	0.000000	0.000000	0.000000	0.000000	2
91.520955	9.424132	0.000000	0.303146	0.881230	0.000000	0.931914	-2.210066	0.000000	0.000000	0.000000	0.000000	0.000000	1
94.629947	9.424132	0.000000	0.271084	0.618819	0.000000	0.675591	-87.176410	0.000000	0.000000	0.000000	0.000000	0.000000	2
97.738939	9.424132	0.000000	0.235599	0.395528	0.000000	0.460380	-107.529677	0.000000	0.000000	0.000000	0.000000	0.000000	1
100.847931	9.424132	0.000000	0.052806	0.051893	0.000000	0.074036	-69.432040	0.000000	0.000000	0.000000	0.000000	0.000000	2
103.956923	9.424132	0.000000	-0.002264	0.002315	0.000000	0.003238	-7.199963	0.000000	0.000000	0.000000	0.000000	0.000000	1
107.065915	9.424132	0.000000	-0.003913	0.001747	0.000000	0.004286	-3.636360	0.000000	0.000000	0.000000	0.000000	0.000000	1
110.174908	9.424132	0.000000	-0.004201	0.002192	0.000000	0.004738	-2.637858	0.000000	0.000000	0.000000	0.000000	0.000000	1
113.283900	9.424132	0.000000	-0.004665	0.002792	0.000000	0.005436	-3.148540	0.000000	0.000000	0.000000	0.000000	0.000000	1
116.392892	9.424132	0.000000	0.000333	-0.003382	0.000000	0.003398	-3.021764	0.000000	0.000000	0.000000	0.000000	0.000000	1
119.501884	9.424132	0.000000	-0.001082	-0.002899	0.000000	0.003095	-0.821161	0.000000	0.000000	0.000000	0.000000	0.000000	1
122.610876	9.424132	0.000000	-0.000001	-0.000749	0.000000	0.000749	-0.071322	0.000000	0.000000	0.000000	0.000000	0.000000	1
125.719868	9.424132	0.000000	-0.001183	-0.000439	0.000000	0.001262	0.193377	0.000000	0.000000	0.000000	0.000000	0.000000	1
128.828860	9.424132	0.000000	-0.003656	0.000002	0.000000	0.003656	2.264477	0.000000	0.000000	0.000000	0.000000	0.000000	1
131.937852	9.424132	0.000000	-0.009392	0.018218	0.000000	0.020497	1.710699	0.000000	0.000000	0.000000	0.000000	0.000000	1
135.046844	9.424132	0.000000	-0.009001	0.012645	0.000000	0.015521	-0.509715	0.000000	0.000000	0.000000	0.000000	0.000000	1
138.155836	9.424132	0.000000	-0.008134	0.010687	0.000000	0.013430	-0.107455	0.000000	0.000000	0.000000	0.000000	0.000000	1
141.264829	9.424132	0.000000	-0.000279	0.008375	0.000000	0.008380	0.705410	0.000000	0.000000	0.000000	0.000000	0.000000	1
144.373821	9.424132	0.000000	-0.001426	0.006860	0.000000	0.007007	1.197437	0.000000	0.000000	0.000000	0.000000	0.000000	1
147.482813	9.424132	0.000000	-0.000673	0.006342	0.000000	0.006377	0.841102	0.000000	0.000000	0.000000	0.000000	0.000000	1
150.591805	9.424132	0.000000	-0.002660	0.005753	0.000000	0.006339	-0.116362	0.000000	0.000000	0.000000	0.000000	0.000000	1
153.700797	9.424132	0.000000	-0.006468	0.004390	0.000000	0.007817	-0.940309	0.000000	0.000000	0.000000	0.000000	0.000000	1
156.809789	9.424132	0.000000	-0.011277	0.001848	0.000000	0.011427	-0.949302	0.000000	0.000000	0.000000	0.000000	0.000000	1
159.918781	9.424132	0.000000	-0.008325	0.001606	0.000000	0.008478	-0.728100	0.000000	0.000000	0.000000	0.000000	0.000000	1
4.469176	12.533124	0.000000	0.001063	0.004654	0.000000	0.004774	0.139716	0.000000	0.000000	0.000000	0.000000	0.000000	1
7.578168	12.533124	0.000000	0.002364	0.008062	0.000000	0.008401	0.824693	0.000000	0.000000	0.000000	0.000000	0.000000	1
10.687160	12.533124	0.000000	-0.002820	0.009868	0.000000	0.010263	0.702144	0.000000	0.000000	0.000000	0.000000	0.000000	1
13.796152	12.533124	0.000000	-0.003862	0.009975	0.000000	0.010697	-0.255195	0.000000	0.000000	0.000000	0.000000	0.000000	1
16.905145	12.533124	0.000000	0.007278	0.008505	0.000000	0.011194	-0.519608	0.000000	0.000000	0.000000	0.000000	0.000000	1
20.014137	12.533124	0.000000	0.004462	0.005857	0.000000	0.007363	0.133307	0.000000	0.000000	0.000000	0.000000	0.000000	1
23.123129	12.533124	0.000000	0.007353	0.008146	0.000000	0.010974	0.345645	0.000000	0.000000	0.000000	0.000000	0.000000	1
26.232121	12.533124	0.000000	0.007117	0.008912	0.000000	0.011405	-0.767391	0.000000	0.000000	0.000000	0.000000	0.000000	1
29.341113	12.533124	0.000000	0.003355	0.006842	0.000000	0.007620	-0.364906	0.000000	0.000000	0.000000	0.000000	0.000000	1
32.450105	12.533124	0.000000	0.001920	0.003213	0.000000	0.003743	1.227296	0.000000	0.000000	0.000000	0.000000	0.000000	1
35.559097	12.533124	0.000000	-0.000666	-0.000052	0.000000	0.000668	0.749948	0.000000	0.000000	0.000000	0.000000	0.000000	1
38.668089	12.533124	0.000000	-0.000667	-0.021895	0.000000	0.021905	4.765551	0.000000	0.000000	0.000000	0.000000	0.000000	1
41.777081	12.533124	0.000000	-0.006526	-0.015466	0.000000	0.016786	19.917368	0.000000	0.000000	0.000000	0.000000	0.000000	1
44.886073	12.533124	0.000000	-0.003444	0.053570	0.000000	0.053681	25.464182	0.000000	0.000000	0.000000	0.000000	0.000000	1
47.995066	12.533124	0.000000	-0.002568	0.079701	0.000000	0.079742	13.640819	0.000000	0.000000	0.000000	0.000000	0.000000	1
51.104058	12.533124	0.000000	-0.029006	0.034329	0.000000	0.044942	6.499609	0.000000	0.000000	0.000000	0.000000	0.000000	2
54.213050	12.533124	0.000000	-0.038192	0.034024	0.000000	0.051149	5.213976	0.000000	0.000000	0.000000	0.000000	0.000000	1
57.322042	12.533124	0.000000	0.005325	0.028746	0.000000	0.029235	7.770079	0.000000	0.000000	0.000000	0.000000	0.000000	1
60.431034	12.533124	0.000000	-0.015504	0.036264	0.000000	0.039439	12.147676	0.000000	0.000000	0.000000	0.000000	0.000000	1
63.540026	12.533124	0.000000	-0.027509	0.083577	0.000000	0.087988	2.160281	0.000000	0.000000	0.000000	0.000000	0.000000	2
66.649018	12.533124	0.000000	-0.031809	0.042237	0.000000	0.052875	-3.084684	0.000000	0.000000	0.000000	0.000000	0.000000	2
69.758010	12.533124	0.000000	-0.028583	0.032851	0.000000	0.043545	3.502294	0.000000	0.000000	0.000000	0.000000	0.000000	1
72.867002	12.533124	0.000000	-0.027752	0.037070	0.000000	0.046308	3.644019	0.000000	0.000000	0.000000	0.000000	0.000000	1
75.975994	12.533124	0.000000	-0.003421	0.030011	0.000000	0.030205	7.721929	0.000000	0.000000	0.000000	0.000000	0.000000	1
79.084987	12.533124	0.000000	-0.014840	0.066009	0.000000	0.067656	16.190704	0.000000	0.000000	0.000000	0.000000	0.000000	1
82.193979	12.533124	0.000000	-0.033242	0.077716	0.000000	0.084527	32.087172	0.000000	0.000000	0.000000	0.000000	0.000000	1
85.302971	12.533124	0.000000	0.049616	0.163259	0.000000	0.170632	81.398201	0.000000	0.000000	0.000000	0.000000	0.000000	2
88.411963	12.533124	0.000000	0.104427	0.535762	0.000000	0.545844	106.949297	0.000000	0.000000	0.000000	0.000000	0.000000	2
91.520955	12.533124	0.000000	0.274507	0.879891	0.000000	0.921717	19.803328	0.000000	0.000000	0.000000	0.000000	0.000000	1
94.629947	12.533124	0.000000	0.428797	0.735550	0.000000	0.851411	-50.438748	0.000000	0.000000	0.000000	0.000000	0.000000	1
97.738939	12.533124	0.000000	0.267417	0.639111	0.000000	0.692802	-115.088218	0.000000	0.000000	0.000000	0.000000	0.000000	2
100.847931	12.533124	0.000000	0.027863	0.034974	0.000000	0.044716	-102.745604	0.000000	0.000000	0.000000	0.000000	0.000000	2
103.956923	12.533124	0.000000	0.018674	0.031969	0.000000	0.037024	-11.047110	0.000000	0.000000	0.000000	0.000000	0.000000	1
107.065915	12.533124	0.000000	0.013509	0.026231	0.000000	0.029505	-4.633688	0.000000	0.000000	0.000000	0.000000	0.000000	1
110.174908	12.533124	0.000000	-0.003234	0.002810	0.000000	0.004284	-4.140752	0.000000	0.000000	0.000000	0.000000	0.000000	1
113.283900	12.533124	0.000000	-0.000420	0.000289	0.000000	0.000510	-1.511336	0.000000	0.000000	0.000000	0.000000	0.000000	1
116.392892	12.533124	0.000000	-0.000014	-0.000090	0.000000	0.000091	-0.831867	0.000000	0.000000	0.000000	0.000000	0.000000	1
119.501884	12.533124	0.000000	-0.000403	0.000866	0.000000	0.000955	-0.330550	0.000000	0.000000	0.000000	0.000000	0.000000	1
122.610876	12.533124	0.000000	-0.000083	-0.000141	0.000000	0.000163	-0.527505	0.000000	0.000000	0.000000	0.000000	0.000000	1
125.719868	12.533124	0.000000	-0.001226	0.000905	0.000000	0.001524	0.116613	0.000000	0.000000	0.000000	0.000000	0.000000	1
128.828860	12.533124	0.000000	-0.003002	0.006683	0.000000	0.007326	1.172270	0.000000	0.000000	0.000000	0.000000	0.000000	1
131.937852	12.533124	0.000000	-0.004160	0.009965	0.000000	0.010798	0.652661	0.000000	0.000000	0.000000	0.000000	0.000000	1
135.046844	12.533124	0.000000	-0.007256	0.010836	0.000000	0.013041	-0.476796	0.000000	0.000000	0.000000	0.000000	0.000000	1
138.155836	12.533124	0.000000	-0.006549	0.008489	0.000000	0.010722	-0.118025	0.000000	0.000000	0.000000	0.000000	0.000000	1
141.264829	12.533124	0.000000	-0.007927	0.008152	0.000000	0.011371	0.771747	0.000000	0.000000	0.000000	0.000000	0.000000	1
144.373821	12.533124	0.000000	-0.010630	0.011341	0.000000	0.015544	0.801455	0.000000	0.000000	0.000000	0.000000	0.000000	1
147.482813	12.533124	0.000000	-0.010466	0.010802	0.000000	0.015041	-0.192182	0.000000	0.000000	0.000000	0.000000	0.000000	1
150.591805	12.533124	0.000000	-0.005229	0.005048	0.000000	0.007268	-0.740392	0.000000	0.000000	0.000000	0.000000	0.000000	1
153.700797	12.533124	0.000000	-0.002145	0.002266	0.000000	0.003120	-0.758598	0.000000	0.000000	0.000000	0.000000	0.000000	1
156.809789	12.533124	0.000000	-0.001626	0.002163	0.000000	0.002706	-1.293962	0.000000	0.000000	0.000000	0.000000	0.000000	1
159.918781	12.533124	0.000000	-0.001932	0.001237	0.000000	0.002294	-1.787901	0.000000	0.000000	0.000000	0.000000	0.000000	1
4.469176	15.642117	0.000000	0.006116	0.019088	0.000000	0.020044	-2.742803	0.000000	0.000000	0.000000	0.000000	0.000000	1
7.578168	15.642117	0.000000	-0.003191	0.006070	0.000000	0.006857	-0.644401	0.000000	0.000000	0.000000	0.000000	0.000000	1
10.687160	15.642117	0.000000	-0.004212	0.008584	0.000000	0.009561	0.281332	0.000000	0.000000	0.000000	0.000000	0.000000	1
13.796152	15.642117	0.000000	0.002158	0.006340	0.000000	0.006697	-0.787599	0.000000	0.000000	0.000000	0.000000	0.000000	1
16.905145	15.642117	0.000000	0.004017	0.004527	0.000000	0.006052	-0.498722	0.000000	0.000000	0.000000	0.000000	0.000000	1
20.014137	15.642117	0.000000	0.002044	0.002171	0.000000	0.002982	0.616291	0.000000	0.000000	0.000000	0.000000	0.000000	1
23.123129	15.642117	0.000000	0.005425	0.005972	0.000000	0.008068	1.342662	0.000000	0.000000	0.000000	0.000000	0.000000	1
26.232121	15.642117	0.000000	0.007691	0.008087	0.000000	0.011160	0.140477	0.000000	0.000000	0.000000	0.000000	0.000000	1
29.341113	15.642117	0.000000	0.004056	0.004539	0.000000	0.006087	-0.812350	0.000000	0.000000	0.000000	0.000000	0.000000	1
32.450105	15.642117	0.000000	-0.002086	0.002597	0.000000	0.003331	-0.618427	0.000000	0.000000	0.000000	0.000000	0.000000	1
35.559097	15.642117	0.000000	-0.007308	-0.001208	0.000000	0.007407	0.920885	0.000000	0.000000	0.000000	0.000000	0.000000	1
38.668089	15.642117	0.000000	-0.035767	-0.002504	0.000000	0.035855	5.703887	0.000000	0.000000	0.000000	0.000000	0.000000	2
41.777081	15.642117	0.000000	-0.058836	-0.000259	0.000000	0.058837	17.382173	0.000000	0.000000	0.000000	0.000000	0.000000	2
44.886073	15.642117	0.000000	-0.054694	0.054985	0.000000	0.077555	23.567784	0.000000	0.000000	0.000000	0.000000	0.000000	1
47.995066	15.642117	0.000000	-0.105353	0.062752	0.000000	0.122625	19.985929	0.000000	0.000000	0.000000	0.000000	0.000000	2
51.104058	15.642117	0.000000	-0.063403	0.061572	0.000000	0.088380	10.674906	0.000000	0.000000	0.000000	0.000000	0.000000	2
54.213050	15.642117	0.000000	-0.041370	0.048282	0.000000	0.063582	2.179083	0.000000	0.000000	0.000000	0.000000	0.000000	1
57.322042	15.642117	0.000000	-0.017358	0.035774	0.000000	0.039763	9.085350	0.000000	0.000000	0.000000	0.000000	0.000000	1
60.431034	15.642117	0.000000	-0.043997	0.088860	0.000000	0.099156	16.070697	0.000000	0.000000	0.000000	0.000000	0.000000	2
63.540026	15.642117	0.000000	-0.046242	0.093612	0.000000	0.104411	5.263778	0.000000	0.000000	0.000000	0.000000	0.000000	2
66.649018	15.642117	0.000000	-0.027232	0.057412	0.000000	0.063542	-4.365512	0.000000	0.000000	0.000000	0.000000	0.000000	1
69.758010	15.642117	0.000000	-0.036538	0.036448	0.000000	0.051609	-1.058745	0.000000	0.000000	0.000000	0.000000	0.000000	1
72.867002	15.642117	0.000000	-0.025561	0.037467	0.000000	0.045355	2.964212	0.000000	0.000000	0.000000	0.000000	0.000000	1
75.975994	15.642117	0.000000	0.007431	0.065768	0.000000	0.066187	2.934994	0.000000	0.000000	0.000000	0.000000	0.000000	1
79.084987	15.642117	0.000000	-0.003610	0.089705	0.000000	0.089777	-0.235280	0.000000	0.000000	0.000000	0.000000	0.000000	2
82.193979	15.642117	0.000000	-0.045880	0.109007	0.000000	0.118269	15.114690	0.000000	0.000000	0.000000	0.000000	0.000000	1
85.302971	15.642117	0.000000	0.010282	0.229151	0.000000	0.229382	48.464812	0.000000	0.000000	0.000000	0.000000	0.000000	2
88.411963	15.642117	0.000000	0.148954	0.348032	0.000000	0.378568	78.979168	0.000000	0.000000	0.000000	0.000000	0.000000	1
91.520955	15.642117	0.000000	0.441494	0.661744	0.000000	0.795501	53.976407	0.000000	0.000000	0.000000	0.000000	0.000000	1
94.629947	15.642117	0.000000	0.363645	0.741642	0.000000	0.825997	-1.824002	0.000000	0.000000	0.000000	0.000000	0.000000	2
97.738939	15.642117	0.000000	0.295568	0.757931	0.000000	0.813523	-104.901079	0.000000	0.000000	0.000000	0.000000	0.000000	1
100.847931	15.642117	0.000000	0.116328	0.123268	0.000000	0.169491	-126.643149	0.000000	0.000000	0.000000	0.000000	0.000000	2
103.956923	15.642117	0.000000	0.012110	0.011325	0.000000	0.016580	-33.070383	0.000000	0.000000	0.000000	0.000000	0.000000	1
107.065915	15.642117	0.000000	0.019389	0.031705	0.000000	0.037164	-2.921161	0.000000	0.000000	0.000000	0.000000	0.000000	1
110.174908	15.642117	0.000000	-0.003783	0.015911	0.000000	0.016355	-1.417142	0.000000	0.000000	0.000000	0.000000	0.000000	1
113.283900	15.642117	0.000000	0.000541	0.008899	0.000000	0.008916	-2.006470	0.000000	0.000000	0.000000	0.000000	0.000000	1
116.392892	15.642117	0.000000	0.001173	0.001365	0.000000	0.001800	-1.491237	0.000000	0.000000	0.000000	0.000000	0.000000	1
119.501884	15.642117	0.000000	0.004346	0.005059	0.000000	0.006669	-0.353415	0.000000	0.000000	0.000000	0.000000	0.000000	1
122.610876	15.642117	0.000000	0.003447	0.005754	0.000000	0.006707	0.137509	0.000000	0.000000	0.000000	0.000000	0.000000	1