TITLE = "PIV Result  2785 "
VARIABLES = "X (mm)""Y (mm)""Z (mm)""U (m/s)""V (m/s)""W (m/s)""Speed (m/s)""Vorticity""U-std""V-std""W-std""Speed-std""Vorticity-std""Flag"
ZONE T="ZONE 2785 "
I= 51 , J= 16 , K= 1 , F=POINT
DT=(DOUBLE DOUBLE DOUBLE DOUBLE DOUBLE DOUBLE DOUBLE DOUBLE DOUBLE DOUBLE DOUBLE DOUBLE DOUBLE DOUBLE)
4.469176	3.206148	0.000000	0.003847	0.011072	0.000000	0.011721	0.565061	0.000000	0.000000	0.000000	0.000000	0.000000	2
7.578168	3.206148	0.000000	0.007729	0.009675	0.000000	0.012383	0.116741	0.000000	0.000000	0.000000	0.000000	0.000000	1
10.687160	3.206148	0.000000	0.002042	0.006828	0.000000	0.007126	-1.338103	0.000000	0.000000	0.000000	0.000000	0.000000	1
13.796152	3.206148	0.000000	0.003228	0.007016	0.000000	0.007723	-1.961434	0.000000	0.000000	0.000000	0.000000	0.000000	1
16.905145	3.206148	0.000000	0.000704	0.005695	0.000000	0.005738	-0.670369	0.000000	0.000000	0.000000	0.000000	0.000000	1
20.014137	3.206148	0.000000	0.009353	0.006333	0.000000	0.011295	1.559667	0.000000	0.000000	0.000000	0.000000	0.000000	1
23.123129	3.206148	0.000000	0.012234	0.006428	0.000000	0.013820	2.394599	0.000000	0.000000	0.000000	0.000000	0.000000	1
26.232121	3.206148	0.000000	0.001937	0.002612	0.000000	0.003252	1.349694	0.000000	0.000000	0.000000	0.000000	0.000000	1
29.341113	3.206148	0.000000	0.001709	0.005168	0.000000	0.005443	-0.478751	0.000000	0.000000	0.000000	0.000000	0.000000	1
32.450105	3.206148	0.000000	0.002157	0.003006	0.000000	0.003700	-1.413087	0.000000	0.000000	0.000000	0.000000	0.000000	1
35.559097	3.206148	0.000000	-0.002382	-0.000069	0.000000	0.002383	-1.075326	0.000000	0.000000	0.000000	0.000000	0.000000	1
38.668089	3.206148	0.000000	-0.003751	-0.000127	0.000000	0.003753	-2.126989	0.000000	0.000000	0.000000	0.000000	0.000000	1
41.777081	3.206148	0.000000	-0.000613	-0.000054	0.000000	0.000615	-2.856816	0.000000	0.000000	0.000000	0.000000	0.000000	1
44.886073	3.206148	0.000000	-0.000228	-0.000203	0.000000	0.000305	-2.204688	0.000000	0.000000	0.000000	0.000000	0.000000	1
47.995066	3.206148	0.000000	-0.001005	-0.000373	0.000000	0.001072	-1.473489	0.000000	0.000000	0.000000	0.000000	0.000000	1
51.104058	3.206148	0.000000	-0.000980	0.001418	0.000000	0.001724	-1.688805	0.000000	0.000000	0.000000	0.000000	0.000000	1
54.213050	3.206148	0.000000	0.000098	0.002653	0.000000	0.002655	-1.250261	0.000000	0.000000	0.000000	0.000000	0.000000	1
57.322042	3.206148	0.000000	0.010561	-0.001351	0.000000	0.010647	41.892039	0.000000	0.000000	0.000000	0.000000	0.000000	1
60.431034	3.206148	0.000000	-0.041375	-0.002926	0.000000	0.041479	135.597423	0.000000	0.000000	0.000000	0.000000	0.000000	2
63.540026	3.206148	0.000000	-0.205293	0.132819	0.000000	0.244512	168.142257	0.000000	0.000000	0.000000	0.000000	0.000000	2
66.649018	3.206148	0.000000	-0.359051	0.313718	0.000000	0.476799	164.456631	0.000000	0.000000	0.000000	0.000000	0.000000	2
69.758010	3.206148	0.000000	-0.418914	0.667609	0.000000	0.788157	99.126673	0.000000	0.000000	0.000000	0.000000	0.000000	2
72.867002	3.206148	0.000000	-0.478777	0.840601	0.000000	0.967387	-97.894334	0.000000	0.000000	0.000000	0.000000	0.000000	1
75.975994	3.206148	0.000000	-0.318828	0.454741	0.000000	0.555374	-149.251340	0.000000	0.000000	0.000000	0.000000	0.000000	2
79.084987	3.206148	0.000000	-0.037359	0.010921	0.000000	0.038923	-51.197260	0.000000	0.000000	0.000000	0.000000	0.000000	1
82.193979	3.206148	0.000000	-0.032978	-0.043020	0.000000	0.054206	-8.050338	0.000000	0.000000	0.000000	0.000000	0.000000	1
85.302971	3.206148	0.000000	-0.036518	-0.031812	0.000000	0.048431	2.239618	0.000000	0.000000	0.000000	0.000000	0.000000	2
88.411963	3.206148	0.000000	-0.040059	-0.020603	0.000000	0.045046	0.984259	0.000000	0.000000	0.000000	0.000000	0.000000	1
91.520955	3.206148	0.000000	-0.145654	0.056106	0.000000	0.156087	-17.958019	0.000000	0.000000	0.000000	0.000000	0.000000	2
94.629947	3.206148	0.000000	-0.171719	0.044508	0.000000	0.177393	-36.305877	0.000000	0.000000	0.000000	0.000000	0.000000	2
97.738939	3.206148	0.000000	0.010082	-0.001284	0.000000	0.010163	-19.934796	0.000000	0.000000	0.000000	0.000000	0.000000	1
100.847931	3.206148	0.000000	-0.004499	0.000836	0.000000	0.004576	-1.398531	0.000000	0.000000	0.000000	0.000000	0.000000	1
103.956923	3.206148	0.000000	-0.011643	-0.004502	0.000000	0.012483	1.975466	0.000000	0.000000	0.000000	0.000000	0.000000	1
107.065915	3.206148	0.000000	-0.010361	-0.002714	0.000000	0.010711	4.023801	0.000000	0.000000	0.000000	0.000000	0.000000	1
110.174908	3.206148	0.000000	0.000701	0.000762	0.000000	0.001035	3.286713	0.000000	0.000000	0.000000	0.000000	0.000000	1
113.283900	3.206148	0.000000	0.001234	-0.000652	0.000000	0.001396	3.195239	0.000000	0.000000	0.000000	0.000000	0.000000	1
116.392892	3.206148	0.000000	0.001584	-0.000435	0.000000	0.001643	1.973287	0.000000	0.000000	0.000000	0.000000	0.000000	1
119.501884	3.206148	0.000000	-0.003346	-0.000725	0.000000	0.003424	-0.121899	0.000000	0.000000	0.000000	0.000000	0.000000	1
122.610876	3.206148	0.000000	-0.002926	-0.000645	0.000000	0.002997	0.287056	0.000000	0.000000	0.000000	0.000000	0.000000	1
125.719868	3.206148	0.000000	0.000751	-0.000360	0.000000	0.000832	2.510263	0.000000	0.000000	0.000000	0.000000	0.000000	1
128.828860	3.206148	0.000000	0.000523	-0.001458	0.000000	0.001549	3.474149	0.000000	0.000000	0.000000	0.000000	0.000000	1
131.937852	3.206148	0.000000	0.000083	-0.002130	0.000000	0.002132	2.370775	0.000000	0.000000	0.000000	0.000000	0.000000	1
135.046844	3.206148	0.000000	-0.001757	0.002689	0.000000	0.003212	1.355989	0.000000	0.000000	0.000000	0.000000	0.000000	1
138.155836	3.206148	0.000000	-0.002359	0.004227	0.000000	0.004841	0.775461	0.000000	0.000000	0.000000	0.000000	0.000000	1
141.264829	3.206148	0.000000	-0.006799	0.011751	0.000000	0.013576	0.022381	0.000000	0.000000	0.000000	0.000000	0.000000	1
144.373821	3.206148	0.000000	-0.007784	0.017683	0.000000	0.019320	-1.761530	0.000000	0.000000	0.000000	0.000000	0.000000	1
147.482813	3.206148	0.000000	-0.002286	0.005127	0.000000	0.005613	-1.229149	0.000000	0.000000	0.000000	0.000000	0.000000	1
150.591805	3.206148	0.000000	-0.001070	0.005655	0.000000	0.005756	0.562379	0.000000	0.000000	0.000000	0.000000	0.000000	1
153.700797	3.206148	0.000000	0.000505	0.004753	0.000000	0.004779	0.402275	0.000000	0.000000	0.000000	0.000000	0.000000	1
156.809789	3.206148	0.000000	-0.001334	0.002959	0.000000	0.003246	-0.219151	0.000000	0.000000	0.000000	0.000000	0.000000	1
159.918781	3.206148	0.000000	-0.002622	0.001483	0.000000	0.003012	-0.571727	0.000000	0.000000	0.000000	0.000000	0.000000	1
4.469176	6.315140	0.000000	0.007681	0.009776	0.000000	0.012432	0.989873	0.000000	0.000000	0.000000	0.000000	0.000000	1
7.578168	6.315140	0.000000	0.005281	0.016071	0.000000	0.016917	0.648351	0.000000	0.000000	0.000000	0.000000	0.000000	1
10.687160	6.315140	0.000000	0.004938	0.017304	0.000000	0.017995	-1.094763	0.000000	0.000000	0.000000	0.000000	0.000000	1
13.796152	6.315140	0.000000	0.006957	0.009162	0.000000	0.011503	-1.678597	0.000000	0.000000	0.000000	0.000000	0.000000	1
16.905145	6.315140	0.000000	0.005574	0.009267	0.000000	0.010814	-0.555084	0.000000	0.000000	0.000000	0.000000	0.000000	1
20.014137	6.315140	0.000000	-0.000000	0.005622	0.000000	0.005622	0.422705	0.000000	0.000000	0.000000	0.000000	0.000000	1
23.123129	6.315140	0.000000	0.000989	0.002848	0.000000	0.003015	1.230459	0.000000	0.000000	0.000000	0.000000	0.000000	1
26.232121	6.315140	0.000000	0.002252	0.007595	0.000000	0.007922	1.357721	0.000000	0.000000	0.000000	0.000000	0.000000	1
29.341113	6.315140	0.000000	0.004404	0.012974	0.000000	0.013701	-0.234602	0.000000	0.000000	0.000000	0.000000	0.000000	1
32.450105	6.315140	0.000000	0.001155	0.005950	0.000000	0.006061	-1.764183	0.000000	0.000000	0.000000	0.000000	0.000000	1
35.559097	6.315140	0.000000	-0.001186	0.002524	0.000000	0.002789	-0.971135	0.000000	0.000000	0.000000	0.000000	0.000000	1
38.668089	6.315140	0.000000	0.006796	0.007647	0.000000	0.010231	-1.700279	0.000000	0.000000	0.000000	0.000000	0.000000	1
41.777081	6.315140	0.000000	0.004523	0.003483	0.000000	0.005709	-2.971065	0.000000	0.000000	0.000000	0.000000	0.000000	1
44.886073	6.315140	0.000000	0.002335	-0.004423	0.000000	0.005002	-2.090761	0.000000	0.000000	0.000000	0.000000	0.000000	1
47.995066	6.315140	0.000000	0.005377	-0.006971	0.000000	0.008804	-0.906577	0.000000	0.000000	0.000000	0.000000	0.000000	1
51.104058	6.315140	0.000000	0.005751	-0.002310	0.000000	0.006198	0.495952	0.000000	0.000000	0.000000	0.000000	0.000000	1
54.213050	6.315140	0.000000	0.017921	0.006668	0.000000	0.019122	18.480985	0.000000	0.000000	0.000000	0.000000	0.000000	1
57.322042	6.315140	0.000000	-0.003053	0.013674	0.000000	0.014010	83.516033	0.000000	0.000000	0.000000	0.000000	0.000000	1
60.431034	6.315140	0.000000	-0.311241	0.253946	0.000000	0.401696	133.334556	0.000000	0.000000	0.000000	0.000000	0.000000	1
63.540026	6.315140	0.000000	-0.706327	0.511414	0.000000	0.872034	111.354929	0.000000	0.000000	0.000000	0.000000	0.000000	1
66.649018	6.315140	0.000000	-0.620818	0.494618	0.000000	0.793764	106.167736	0.000000	0.000000	0.000000	0.000000	0.000000	1
69.758010	6.315140	0.000000	-0.512810	0.903342	0.000000	1.038750	55.155322	0.000000	0.000000	0.000000	0.000000	0.000000	1
72.867002	6.315140	0.000000	-0.327624	0.902068	0.000000	0.959721	-101.716944	0.000000	0.000000	0.000000	0.000000	0.000000	1
75.975994	6.315140	0.000000	-0.310031	0.116003	0.000000	0.331023	-124.206062	0.000000	0.000000	0.000000	0.000000	0.000000	2
79.084987	6.315140	0.000000	-0.040446	0.041317	0.000000	0.057819	-39.915993	0.000000	0.000000	0.000000	0.000000	0.000000	1
82.193979	6.315140	0.000000	-0.026447	-0.013772	0.000000	0.029818	-13.099475	0.000000	0.000000	0.000000	0.000000	0.000000	1
85.302971	6.315140	0.000000	-0.042504	-0.012075	0.000000	0.044186	-3.201550	0.000000	0.000000	0.000000	0.000000	0.000000	2
88.411963	6.315140	0.000000	-0.028131	-0.001851	0.000000	0.028192	-3.077283	0.000000	0.000000	0.000000	0.000000	0.000000	2
91.520955	6.315140	0.000000	-0.062593	0.013177	0.000000	0.063965	-12.868481	0.000000	0.000000	0.000000	0.000000	0.000000	2
94.629947	6.315140	0.000000	-0.026570	0.032910	0.000000	0.042297	-21.419551	0.000000	0.000000	0.000000	0.000000	0.000000	2
97.738939	6.315140	0.000000	-0.000782	-0.018438	0.000000	0.018455	-12.301793	0.000000	0.000000	0.000000	0.000000	0.000000	2
100.847931	6.315140	0.000000	0.020913	-0.022494	0.000000	0.030714	1.853100	0.000000	0.000000	0.000000	0.000000	0.000000	1
103.956923	6.315140	0.000000	-0.007780	0.011210	0.000000	0.013645	3.486386	0.000000	0.000000	0.000000	0.000000	0.000000	1
107.065915	6.315140	0.000000	-0.024000	0.025120	0.000000	0.034742	-0.192650	0.000000	0.000000	0.000000	0.000000	0.000000	1
110.174908	6.315140	0.000000	-0.017539	0.014331	0.000000	0.022649	-0.654745	0.000000	0.000000	0.000000	0.000000	0.000000	1
113.283900	6.315140	0.000000	-0.006869	0.005711	0.000000	0.008933	1.958437	0.000000	0.000000	0.000000	0.000000	0.000000	1
116.392892	6.315140	0.000000	-0.007605	0.011629	0.000000	0.013895	1.165359	0.000000	0.000000	0.000000	0.000000	0.000000	1
119.501884	6.315140	0.000000	-0.004368	0.002820	0.000000	0.005199	-0.553619	0.000000	0.000000	0.000000	0.000000	0.000000	1
122.610876	6.315140	0.000000	-0.003421	-0.001404	0.000000	0.003698	0.672533	0.000000	0.000000	0.000000	0.000000	0.000000	1
125.719868	6.315140	0.000000	-0.001975	0.001289	0.000000	0.002359	2.294199	0.000000	0.000000	0.000000	0.000000	0.000000	1
128.828860	6.315140	0.000000	-0.013388	0.010769	0.000000	0.017182	2.128681	0.000000	0.000000	0.000000	0.000000	0.000000	1
131.937852	6.315140	0.000000	-0.009994	0.005638	0.000000	0.011475	1.077557	0.000000	0.000000	0.000000	0.000000	0.000000	1
135.046844	6.315140	0.000000	-0.001585	0.002210	0.000000	0.002720	1.596580	0.000000	0.000000	0.000000	0.000000	0.000000	1
138.155836	6.315140	0.000000	-0.003052	0.005715	0.000000	0.006479	1.210970	0.000000	0.000000	0.000000	0.000000	0.000000	1
141.264829	6.315140	0.000000	-0.004118	0.004258	0.000000	0.005924	-0.232552	0.000000	0.000000	0.000000	0.000000	0.000000	1
144.373821	6.315140	0.000000	-0.003446	0.001545	0.000000	0.003777	-1.318871	0.000000	0.000000	0.000000	0.000000	0.000000	1
147.482813	6.315140	0.000000	-0.002899	-0.000281	0.000000	0.002913	-0.763715	0.000000	0.000000	0.000000	0.000000	0.000000	1
150.591805	6.315140	0.000000	-0.002022	0.000446	0.000000	0.002071	0.375690	0.000000	0.000000	0.000000	0.000000	0.000000	1
153.700797	6.315140	0.000000	-0.001546	0.002519	0.000000	0.002956	0.395991	0.000000	0.000000	0.000000	0.000000	0.000000	1
156.809789	6.315140	0.000000	-0.001458	0.002967	0.000000	0.003306	-0.263950	0.000000	0.000000	0.000000	0.000000	0.000000	1
159.918781	6.315140	0.000000	-0.002503	0.000883	0.000000	0.002654	-0.819032	0.000000	0.000000	0.000000	0.000000	0.000000	1
4.469176	9.424132	0.000000	0.010642	0.014643	0.000000	0.018102	1.610788	0.000000	0.000000	0.000000	0.000000	0.000000	1
7.578168	9.424132	0.000000	0.004141	0.018966	0.000000	0.019413	1.218313	0.000000	0.000000	0.000000	0.000000	0.000000	1
10.687160	9.424132	0.000000	0.002436	0.019970	0.000000	0.020118	0.026913	0.000000	0.000000	0.000000	0.000000	0.000000	1
13.796152	9.424132	0.000000	0.007840	0.010029	0.000000	0.012730	0.025728	0.000000	0.000000	0.000000	0.000000	0.000000	1
16.905145	9.424132	0.000000	0.005453	0.009794	0.000000	0.011210	0.513145	0.000000	0.000000	0.000000	0.000000	0.000000	1
20.014137	9.424132	0.000000	-0.000362	0.008379	0.000000	0.008387	-0.211771	0.000000	0.000000	0.000000	0.000000	0.000000	1
23.123129	9.424132	0.000000	0.001657	0.007155	0.000000	0.007344	-0.283422	0.000000	0.000000	0.000000	0.000000	0.000000	1
26.232121	9.424132	0.000000	0.001841	0.007794	0.000000	0.008008	0.800675	0.000000	0.000000	0.000000	0.000000	0.000000	1
29.341113	9.424132	0.000000	0.005107	0.014562	0.000000	0.015432	0.319060	0.000000	0.000000	0.000000	0.000000	0.000000	1
32.450105	9.424132	0.000000	0.004375	0.013773	0.000000	0.014451	-1.524917	0.000000	0.000000	0.000000	0.000000	0.000000	1
35.559097	9.424132	0.000000	0.001073	0.008108	0.000000	0.008179	0.318243	0.000000	0.000000	0.000000	0.000000	0.000000	1
38.668089	9.424132	0.000000	0.011810	0.014047	0.000000	0.018352	1.715301	0.000000	0.000000	0.000000	0.000000	0.000000	1
41.777081	9.424132	0.000000	0.005404	0.004479	0.000000	0.007019	-0.933370	0.000000	0.000000	0.000000	0.000000	0.000000	1
44.886073	9.424132	0.000000	0.001735	-0.006076	0.000000	0.006319	-1.608961	0.000000	0.000000	0.000000	0.000000	0.000000	1
47.995066	9.424132	0.000000	0.002208	-0.013139	0.000000	0.013323	0.457370	0.000000	0.000000	0.000000	0.000000	0.000000	1
51.104058	9.424132	0.000000	0.009073	-0.016029	0.000000	0.018419	10.373003	0.000000	0.000000	0.000000	0.000000	0.000000	2
54.213050	9.424132	0.000000	0.005302	-0.002585	0.000000	0.005899	60.539736	0.000000	0.000000	0.000000	0.000000	0.000000	2
57.322042	9.424132	0.000000	-0.234705	0.189626	0.000000	0.301736	136.554394	0.000000	0.000000	0.000000	0.000000	0.000000	2
60.431034	9.424132	0.000000	-0.567521	0.574176	0.000000	0.807315	102.894973	0.000000	0.000000	0.000000	0.000000	0.000000	1
63.540026	9.424132	0.000000	-0.706688	0.577320	0.000000	0.912528	5.825122	0.000000	0.000000	0.000000	0.000000	0.000000	1
66.649018	9.424132	0.000000	-0.841628	0.534294	0.000000	0.996900	-0.221046	0.000000	0.000000	0.000000	0.000000	0.000000	2
69.758010	9.424132	0.000000	-0.337288	0.514354	0.000000	0.615079	-17.718878	0.000000	0.000000	0.000000	0.000000	0.000000	2
72.867002	9.424132	0.000000	-0.393256	0.330530	0.000000	0.513713	-88.518094	0.000000	0.000000	0.000000	0.000000	0.000000	2
75.975994	9.424132	0.000000	-0.204566	0.138928	0.000000	0.247281	-77.893067	0.000000	0.000000	0.000000	0.000000	0.000000	2
79.084987	9.424132	0.000000	-0.038990	0.104873	0.000000	0.111886	-30.465050	0.000000	0.000000	0.000000	0.000000	0.000000	1
82.193979	9.424132	0.000000	-0.009936	0.037489	0.000000	0.038783	-19.663727	0.000000	0.000000	0.000000	0.000000	0.000000	2
85.302971	9.424132	0.000000	-0.006592	0.002958	0.000000	0.007225	-7.768207	0.000000	0.000000	0.000000	0.000000	0.000000	1
88.411963	9.424132	0.000000	-0.028684	0.005869	0.000000	0.029278	-3.436735	0.000000	0.000000	0.000000	0.000000	0.000000	2
91.520955	9.424132	0.000000	-0.007818	-0.021489	0.000000	0.022867	-1.178722	0.000000	0.000000	0.000000	0.000000	0.000000	1
94.629947	9.424132	0.000000	-0.009186	0.000752	0.000000	0.009217	0.523802	0.000000	0.000000	0.000000	0.000000	0.000000	1
97.738939	9.424132	0.000000	-0.007930	0.011274	0.000000	0.013783	-2.002006	0.000000	0.000000	0.000000	0.000000	0.000000	1
100.847931	9.424132	0.000000	0.012838	-0.006891	0.000000	0.014571	5.258896	0.000000	0.000000	0.000000	0.000000	0.000000	1
103.956923	9.424132	0.000000	0.003556	0.033147	0.000000	0.033337	4.208780	0.000000	0.000000	0.000000	0.000000	0.000000	1
107.065915	9.424132	0.000000	-0.014932	0.031306	0.000000	0.034685	-6.407059	0.000000	0.000000	0.000000	0.000000	0.000000	1
110.174908	9.424132	0.000000	-0.016850	0.005355	0.000000	0.017681	-5.793471	0.000000	0.000000	0.000000	0.000000	0.000000	1
113.283900	9.424132	0.000000	-0.007853	0.003019	0.000000	0.008413	0.460461	0.000000	0.000000	0.000000	0.000000	0.000000	1
116.392892	9.424132	0.000000	-0.009855	0.013504	0.000000	0.016717	0.162187	0.000000	0.000000	0.000000	0.000000	0.000000	1
119.501884	9.424132	0.000000	-0.004081	0.005159	0.000000	0.006578	-0.881678	0.000000	0.000000	0.000000	0.000000	0.000000	1
122.610876	9.424132	0.000000	-0.006949	0.009078	0.000000	0.011433	0.777451	0.000000	0.000000	0.000000	0.000000	0.000000	1
125.719868	9.424132	0.000000	-0.008224	0.006827	0.000000	0.010689	1.129904	0.000000	0.000000	0.000000	0.000000	0.000000	1
128.828860	9.424132	0.000000	-0.011662	0.008447	0.000000	0.014400	0.395895	0.000000	0.000000	0.000000	0.000000	0.000000	1
131.937852	9.424132	0.000000	-0.010392	0.009023	0.000000	0.013763	-0.002725	0.000000	0.000000	0.000000	0.000000	0.000000	1
135.046844	9.424132	0.000000	-0.009189	0.007651	0.000000	0.011957	1.669900	0.000000	0.000000	0.000000	0.000000	0.000000	1
138.155836	9.424132	0.000000	-0.009878	0.009361	0.000000	0.013609	1.028966	0.000000	0.000000	0.000000	0.000000	0.000000	1
141.264829	9.424132	0.000000	-0.004383	0.004557	0.000000	0.006323	-0.914478	0.000000	0.000000	0.000000	0.000000	0.000000	1
144.373821	9.424132	0.000000	-0.002480	0.001080	0.000000	0.002705	-0.662245	0.000000	0.000000	0.000000	0.000000	0.000000	1
147.482813	9.424132	0.000000	-0.002054	0.000712	0.000000	0.002174	0.289368	0.000000	0.000000	0.000000	0.000000	0.000000	1
150.591805	9.424132	0.000000	-0.001481	0.001667	0.000000	0.002230	1.196556	0.000000	0.000000	0.000000	0.000000	0.000000	1
153.700797	9.424132	0.000000	-0.001859	0.001877	0.000000	0.002642	1.406046	0.000000	0.000000	0.000000	0.000000	0.000000	1
156.809789	9.424132	0.000000	-0.000452	0.004914	0.000000	0.004935	0.252222	0.000000	0.000000	0.000000	0.000000	0.000000	1
159.918781	9.424132	0.000000	-0.000802	0.003076	0.000000	0.003179	-0.710033	0.000000	0.000000	0.000000	0.000000	0.000000	1
4.469176	12.533124	0.000000	0.007252	0.003462	0.000000	0.008036	3.079130	0.000000	0.000000	0.000000	0.000000	0.000000	1
7.578168	12.533124	0.000000	0.008812	0.011654	0.000000	0.014611	1.988764	0.000000	0.000000	0.000000	0.000000	0.000000	1
10.687160	12.533124	0.000000	-0.003762	0.013515	0.000000	0.014029	0.639567	0.000000	0.000000	0.000000	0.000000	0.000000	1
13.796152	12.533124	0.000000	-0.003038	0.013245	0.000000	0.013589	0.189956	0.000000	0.000000	0.000000	0.000000	0.000000	1
16.905145	12.533124	0.000000	0.000979	0.009261	0.000000	0.009312	0.408544	0.000000	0.000000	0.000000	0.000000	0.000000	1
20.014137	12.533124	0.000000	0.000064	0.013728	0.000000	0.013728	0.313147	0.000000	0.000000	0.000000	0.000000	0.000000	1
23.123129	12.533124	0.000000	0.002211	0.012448	0.000000	0.012643	-0.291506	0.000000	0.000000	0.000000	0.000000	0.000000	1
26.232121	12.533124	0.000000	0.001876	0.008008	0.000000	0.008225	0.255080	0.000000	0.000000	0.000000	0.000000	0.000000	1
29.341113	12.533124	0.000000	0.006302	0.009788	0.000000	0.011641	0.782626	0.000000	0.000000	0.000000	0.000000	0.000000	1
32.450105	12.533124	0.000000	0.005090	0.012984	0.000000	0.013947	-0.458312	0.000000	0.000000	0.000000	0.000000	0.000000	1
35.559097	12.533124	0.000000	0.000311	0.006483	0.000000	0.006491	0.337974	0.000000	0.000000	0.000000	0.000000	0.000000	1
38.668089	12.533124	0.000000	-0.009405	0.009383	0.000000	0.013285	1.893806	0.000000	0.000000	0.000000	0.000000	0.000000	1
41.777081	12.533124	0.000000	-0.010536	0.009480	0.000000	0.014173	-0.342509	0.000000	0.000000	0.000000	0.000000	0.000000	1
44.886073	12.533124	0.000000	-0.003621	-0.013791	0.000000	0.014259	-0.682884	0.000000	0.000000	0.000000	0.000000	0.000000	1
47.995066	12.533124	0.000000	-0.010783	-0.027978	0.000000	0.029984	8.620145	0.000000	0.000000	0.000000	0.000000	0.000000	1
51.104058	12.533124	0.000000	0.016092	-0.012556	0.000000	0.020411	37.947292	0.000000	0.000000	0.000000	0.000000	0.000000	2
54.213050	12.533124	0.000000	-0.110137	0.071736	0.000000	0.131439	77.838691	0.000000	0.000000	0.000000	0.000000	0.000000	2
57.322042	12.533124	0.000000	-0.518369	0.304801	0.000000	0.601340	101.693920	0.000000	0.000000	0.000000	0.000000	0.000000	2
60.431034	12.533124	0.000000	-0.622627	0.597241	0.000000	0.862764	51.349370	0.000000	0.000000	0.000000	0.000000	0.000000	1
63.540026	12.533124	0.000000	-0.655383	0.503733	0.000000	0.826603	-28.868268	0.000000	0.000000	0.000000	0.000000	0.000000	1
66.649018	12.533124	0.000000	-0.532854	0.459681	0.000000	0.703733	-40.751227	0.000000	0.000000	0.000000	0.000000	0.000000	1
69.758010	12.533124	0.000000	-0.457772	0.514149	0.000000	0.688407	-47.212178	0.000000	0.000000	0.000000	0.000000	0.000000	1
72.867002	12.533124	0.000000	-0.263184	0.281534	0.000000	0.385392	-56.597803	0.000000	0.000000	0.000000	0.000000	0.000000	1
75.975994	12.533124	0.000000	-0.148760	0.195908	0.000000	0.245987	-44.609779	0.000000	0.000000	0.000000	0.000000	0.000000	1
79.084987	12.533124	0.000000	0.002630	0.086304	0.000000	0.086344	-30.439373	0.000000	0.000000	0.000000	0.000000	0.000000	1
82.193979	12.533124	0.000000	0.019786	0.064492	0.000000	0.067459	-16.320363	0.000000	0.000000	0.000000	0.000000	0.000000	1
85.302971	12.533124	0.000000	-0.025838	0.006657	0.000000	0.026682	-7.422815	0.000000	0.000000	0.000000	0.000000	0.000000	1
88.411963	12.533124	0.000000	-0.036475	-0.006180	0.000000	0.036995	-5.139909	0.000000	0.000000	0.000000	0.000000	0.000000	1
91.520955	12.533124	0.000000	-0.032081	-0.024688	0.000000	0.040481	-1.504652	0.000000	0.000000	0.000000	0.000000	0.000000	1
94.629947	12.533124	0.000000	-0.008630	0.010597	0.000000	0.013667	3.400557	0.000000	0.000000	0.000000	0.000000	0.000000	1
97.738939	12.533124	0.000000	-0.003837	0.017766	0.000000	0.018176	-0.480662	0.000000	0.000000	0.000000	0.000000	0.000000	1
100.847931	12.533124	0.000000	-0.001006	0.021405	0.000000	0.021429	3.779371	0.000000	0.000000	0.000000	0.000000	0.000000	1
103.956923	12.533124	0.000000	0.003926	0.039984	0.000000	0.040176	2.122540	0.000000	0.000000	0.000000	0.000000	0.000000	1
107.065915	12.533124	0.000000	0.007656	0.035225	0.000000	0.036048	-6.423810	0.000000	0.000000	0.000000	0.000000	0.000000	1
110.174908	12.533124	0.000000	-0.004862	0.020784	0.000000	0.021345	-3.659050	0.000000	0.000000	0.000000	0.000000	0.000000	1
113.283900	12.533124	0.000000	-0.008319	0.022672	0.000000	0.024150	0.372214	0.000000	0.000000	0.000000	0.000000	0.000000	1
116.392892	12.533124	0.000000	-0.018081	0.017943	0.000000	0.025473	-2.126100	0.000000	0.000000	0.000000	0.000000	0.000000	1
119.501884	12.533124	0.000000	-0.003869	0.003415	0.000000	0.005161	-0.969882	0.000000	0.000000	0.000000	0.000000	0.000000	1
122.610876	12.533124	0.000000	-0.005516	0.006326	0.000000	0.008393	1.833426	0.000000	0.000000	0.000000	0.000000	0.000000	1
125.719868	12.533124	0.000000	-0.010274	0.008957	0.000000	0.013630	0.835078	0.000000	0.000000	0.000000	0.000000	0.000000	1
128.828860	12.533124	0.000000	-0.009755	0.008458	0.000000	0.012911	0.124482	0.000000	0.000000	0.000000	0.000000	0.000000	1
131.937852	12.533124	0.000000	-0.012692	0.006332	0.000000	0.014184	0.413137	0.000000	0.000000	0.000000	0.000000	0.000000	1
135.046844	12.533124	0.000000	-0.012482	0.005882	0.000000	0.013799	1.934385	0.000000	0.000000	0.000000	0.000000	0.000000	1
138.155836	12.533124	0.000000	-0.013072	0.012600	0.000000	0.018156	0.846928	0.000000	0.000000	0.000000	0.000000	0.000000	1
141.264829	12.533124	0.000000	-0.005234	0.003559	0.000000	0.006329	-1.245436	0.000000	0.000000	0.000000	0.000000	0.000000	1
144.373821	12.533124	0.000000	-0.000992	0.000790	0.000000	0.001268	-0.369159	0.000000	0.000000	0.000000	0.000000	0.000000	1
147.482813	12.533124	0.000000	-0.003509	0.002499	0.000000	0.004308	0.672364	0.000000	0.000000	0.000000	0.000000	0.000000	1
150.591805	12.533124	0.000000	-0.008074	0.003095	0.000000	0.008647	1.462134	0.000000	0.000000	0.000000	0.000000	0.000000	1
153.700797	12.533124	0.000000	-0.009021	0.006941	0.000000	0.011382	1.571870	0.000000	0.000000	0.000000	0.000000	0.000000	1
156.809789	12.533124	0.000000	-0.003133	0.006373	0.000000	0.007101	0.535112	0.000000	0.000000	0.000000	0.000000	0.000000	1
159.918781	12.533124	0.000000	-0.000185	0.003948	0.000000	0.003953	-0.084938	0.000000	0.000000	0.000000	0.000000	0.000000	1
4.469176	15.642117	0.000000	-0.001885	0.003223	0.000000	0.003734	-0.682719	0.000000	0.000000	0.000000	0.000000	0.000000	1
7.578168	15.642117	0.000000	0.005167	0.009305	0.000000	0.010643	-0.792052	0.000000	0.000000	0.000000	0.000000	0.000000	1
10.687160	15.642117	0.000000	-0.002594	0.011747	0.000000	0.012030	-1.088029	0.000000	0.000000	0.000000	0.000000	0.000000	1
13.796152	15.642117	0.000000	-0.002715	0.011378	0.000000	0.011698	-1.571591	0.000000	0.000000	0.000000	0.000000	0.000000	1
16.905145	15.642117	0.000000	0.001483	0.005047	0.000000	0.005260	-0.983277	0.000000	0.000000	0.000000	0.000000	0.000000	1
20.014137	15.642117	0.000000	0.001059	0.005151	0.000000	0.005258	0.157626	0.000000	0.000000	0.000000	0.000000	0.000000	1
23.123129	15.642117	0.000000	0.000175	0.006490	0.000000	0.006493	0.328187	0.000000	0.000000	0.000000	0.000000	0.000000	1
26.232121	15.642117	0.000000	0.002132	0.008673	0.000000	0.008932	-0.517541	0.000000	0.000000	0.000000	0.000000	0.000000	1
29.341113	15.642117	0.000000	0.004964	0.009704	0.000000	0.010900	-0.713830	0.000000	0.000000	0.000000	0.000000	0.000000	1
32.450105	15.642117	0.000000	0.002827	0.010663	0.000000	0.011031	-0.150001	0.000000	0.000000	0.000000	0.000000	0.000000	1
35.559097	15.642117	0.000000	0.001708	0.008765	0.000000	0.008930	-0.421797	0.000000	0.000000	0.000000	0.000000	0.000000	1
38.668089	15.642117	0.000000	-0.005704	0.008207	0.000000	0.009994	-1.655480	0.000000	0.000000	0.000000	0.000000	0.000000	1
41.777081	15.642117	0.000000	-0.006031	0.007676	0.000000	0.009762	-3.282882	0.000000	0.000000	0.000000	0.000000	0.000000	1
44.886073	15.642117	0.000000	-0.021739	0.002302	0.000000	0.021861	-1.878646	0.000000	0.000000	0.000000	0.000000	0.000000	1
47.995066	15.642117	0.000000	-0.031133	-0.008499	0.000000	0.032273	10.502864	0.000000	0.000000	0.000000	0.000000	0.000000	1
51.104058	15.642117	0.000000	-0.096789	0.028166	0.000000	0.100804	39.697253	0.000000	0.000000	0.000000	0.000000	0.000000	1
54.213050	15.642117	0.000000	-0.282911	0.192066	0.000000	0.341947	42.523535	0.000000	0.000000	0.000000	0.000000	0.000000	2
57.322042	15.642117	0.000000	-0.422900	0.253316	0.000000	0.492964	18.125818	0.000000	0.000000	0.000000	0.000000	0.000000	2
60.431034	15.642117	0.000000	-0.613661	0.382881	0.000000	0.723310	9.978146	0.000000	0.000000	0.000000	0.000000	0.000000	1
63.540026	15.642117	0.000000	-0.615055	0.556077	0.000000	0.829165	-19.847990	0.000000	0.000000	0.000000	0.000000	0.000000	1
66.649018	15.642117	0.000000	-0.485600	0.473024	0.000000	0.677908	-40.974004	0.000000	0.000000	0.000000	0.000000	0.000000	1
69.758010	15.642117	0.000000	-0.387044	0.338580	0.000000	0.514236	-32.911649	0.000000	0.000000	0.000000	0.000000	0.000000	1
72.867002	15.642117	0.000000	-0.241421	0.267172	0.000000	0.360090	-19.057557	0.000000	0.000000	0.000000	0.000000	0.000000	1
75.975994	15.642117	0.000000	-0.151127	0.250139	0.000000	0.292248	-21.637749	0.000000	0.000000	0.000000	0.000000	0.000000	1
79.084987	15.642117	0.000000	0.015028	0.086488	0.000000	0.087784	-23.580907	0.000000	0.000000	0.000000	0.000000	0.000000	1
82.193979	15.642117	0.000000	0.020724	0.049460	0.000000	0.053626	-5.356420	0.000000	0.000000	0.000000	0.000000	0.000000	1
85.302971	15.642117	0.000000	-0.026056	0.037652	0.000000	0.045788	-2.105761	0.000000	0.000000	0.000000	0.000000	0.000000	1
88.411963	15.642117	0.000000	-0.021457	0.036763	0.000000	0.042567	-9.337452	0.000000	0.000000	0.000000	0.000000	0.000000	1
91.520955	15.642117	0.000000	-0.002229	-0.002473	0.000000	0.003329	-9.306850	0.000000	0.000000	0.000000	0.000000	0.000000	1
94.629947	15.642117	0.000000	-0.000781	-0.002288	0.000000	0.002418	-1.465743	0.000000	0.000000	0.000000	0.000000	0.000000	1
97.738939	15.642117	0.000000	0.018360	0.013124	0.000000	0.022568	-1.623504	0.000000	0.000000	0.000000	0.000000	0.000000	1
100.847931	15.642117	0.000000	-0.000500	0.019430	0.000000	0.019436	1.963469	0.000000	0.000000	0.000000	0.000000	0.000000	1
103.956923	15.642117	0.000000	0.010073	0.046945	0.000000	0.048013	1.723259	0.000000	0.000000	0.000000	0.000000	0.000000	2
107.065915	15.642117	0.000000	0.021644	0.042655	0.000000	0.047832	-2.750123	0.000000	0.000000	0.000000	0.000000	0.000000	1
110.174908	15.642117	0.000000	-0.013881	0.036000	0.000000	0.038583	-0.742646	0.000000	0.000000	0.000000	0.000000	0.000000	1
113.283900	15.642117	0.000000	-0.016850	0.038554	0.000000	0.042076	-2.219540	0.000000	0.000000	0.000000	0.000000	0.000000	1
116.392892	15.642117	0.000000	-0.007981	0.029637	0.000000	0.030693	-6.192505	0.000000	0.000000	0.000000	0.000000	0.000000	1
119.501884	15.642117	0.000000	-0.011164	0.009714	0.000000	0.014799	-2.254488	0.000000	0.000000	0.000000	0.000000	0.000000	1