TITLE = "PIV Result  965 "
VARIABLES = "X (mm)""Y (mm)""Z (mm)""U (m/s)""V (m/s)""W (m/s)""Speed (m/s)""Vorticity""U-std""V-std""W-std""Speed-std""Vorticity-std""Flag"
ZONE T="ZONE 965 "
I= 51 , J= 16 , K= 1 , F=POINT
DT=(DOUBLE DOUBLE DOUBLE DOUBLE DOUBLE DOUBLE DOUBLE DOUBLE DOUBLE DOUBLE DOUBLE DOUBLE DOUBLE DOUBLE)
4.469176	3.206148	0.000000	-0.000744	0.004068	0.000000	0.004136	-0.301457	0.000000	0.000000	0.000000	0.000000	0.000000	1
7.578168	3.206148	0.000000	0.001126	0.006485	0.000000	0.006582	0.412606	0.000000	0.000000	0.000000	0.000000	0.000000	1
10.687160	3.206148	0.000000	0.002545	0.006409	0.000000	0.006896	0.430239	0.000000	0.000000	0.000000	0.000000	0.000000	1
13.796152	3.206148	0.000000	0.001798	0.005141	0.000000	0.005447	-0.233390	0.000000	0.000000	0.000000	0.000000	0.000000	1
16.905145	3.206148	0.000000	-0.001899	0.007823	0.000000	0.008050	-0.241521	0.000000	0.000000	0.000000	0.000000	0.000000	1
20.014137	3.206148	0.000000	0.004230	0.012100	0.000000	0.012818	-0.225515	0.000000	0.000000	0.000000	0.000000	0.000000	1
23.123129	3.206148	0.000000	0.014329	0.010870	0.000000	0.017985	-0.612503	0.000000	0.000000	0.000000	0.000000	0.000000	1
26.232121	3.206148	0.000000	-0.000721	0.003946	0.000000	0.004012	-0.626810	0.000000	0.000000	0.000000	0.000000	0.000000	1
29.341113	3.206148	0.000000	-0.001001	0.005640	0.000000	0.005728	0.087464	0.000000	0.000000	0.000000	0.000000	0.000000	1
32.450105	3.206148	0.000000	0.003569	0.007658	0.000000	0.008449	-0.887406	0.000000	0.000000	0.000000	0.000000	0.000000	1
35.559097	3.206148	0.000000	0.000141	0.000942	0.000000	0.000953	-1.876557	0.000000	0.000000	0.000000	0.000000	0.000000	1
38.668089	3.206148	0.000000	0.000260	0.000192	0.000000	0.000323	-1.081218	0.000000	0.000000	0.000000	0.000000	0.000000	1
41.777081	3.206148	0.000000	0.000336	0.000068	0.000000	0.000343	-0.885406	0.000000	0.000000	0.000000	0.000000	0.000000	1
44.886073	3.206148	0.000000	0.000832	-0.000616	0.000000	0.001035	-2.261734	0.000000	0.000000	0.000000	0.000000	0.000000	1
47.995066	3.206148	0.000000	-0.000157	-0.000475	0.000000	0.000501	-4.447239	0.000000	0.000000	0.000000	0.000000	0.000000	1
51.104058	3.206148	0.000000	-0.001695	0.001417	0.000000	0.002210	-5.699803	0.000000	0.000000	0.000000	0.000000	0.000000	1
54.213050	3.206148	0.000000	-0.002893	0.001084	0.000000	0.003089	1.139593	0.000000	0.000000	0.000000	0.000000	0.000000	1
57.322042	3.206148	0.000000	-0.001890	-0.000276	0.000000	0.001910	37.050346	0.000000	0.000000	0.000000	0.000000	0.000000	1
60.431034	3.206148	0.000000	-0.081881	0.000403	0.000000	0.081882	122.859074	0.000000	0.000000	0.000000	0.000000	0.000000	2
63.540026	3.206148	0.000000	-0.247845	0.173866	0.000000	0.302748	160.771009	0.000000	0.000000	0.000000	0.000000	0.000000	2
66.649018	3.206148	0.000000	-0.456892	0.345328	0.000000	0.572715	110.643855	0.000000	0.000000	0.000000	0.000000	0.000000	2
69.758010	3.206148	0.000000	-0.511546	0.447179	0.000000	0.679448	49.964105	0.000000	0.000000	0.000000	0.000000	0.000000	2
72.867002	3.206148	0.000000	-0.389990	0.303473	0.000000	0.494154	27.757746	0.000000	0.000000	0.000000	0.000000	0.000000	1
75.975994	3.206148	0.000000	-0.297874	0.372089	0.000000	0.476633	-16.234875	0.000000	0.000000	0.000000	0.000000	0.000000	1
79.084987	3.206148	0.000000	-0.174888	0.157638	0.000000	0.235448	-64.101290	0.000000	0.000000	0.000000	0.000000	0.000000	2
82.193979	3.206148	0.000000	-0.038162	-0.017602	0.000000	0.042026	-35.616262	0.000000	0.000000	0.000000	0.000000	0.000000	2
85.302971	3.206148	0.000000	-0.023238	-0.021919	0.000000	0.031944	-10.680209	0.000000	0.000000	0.000000	0.000000	0.000000	2
88.411963	3.206148	0.000000	-0.019907	-0.030981	0.000000	0.036826	-6.412509	0.000000	0.000000	0.000000	0.000000	0.000000	2
91.520955	3.206148	0.000000	-0.019243	-0.025100	0.000000	0.031628	-0.393481	0.000000	0.000000	0.000000	0.000000	0.000000	2
94.629947	3.206148	0.000000	-0.030175	-0.006750	0.000000	0.030920	1.138829	0.000000	0.000000	0.000000	0.000000	0.000000	1
97.738939	3.206148	0.000000	-0.008218	-0.001188	0.000000	0.008304	0.498909	0.000000	0.000000	0.000000	0.000000	0.000000	1
100.847931	3.206148	0.000000	0.003704	0.000461	0.000000	0.003733	-1.875000	0.000000	0.000000	0.000000	0.000000	0.000000	1
103.956923	3.206148	0.000000	0.023804	-0.001624	0.000000	0.023859	-1.978720	0.000000	0.000000	0.000000	0.000000	0.000000	1
107.065915	3.206148	0.000000	0.026973	-0.001492	0.000000	0.027015	-0.183169	0.000000	0.000000	0.000000	0.000000	0.000000	1
110.174908	3.206148	0.000000	0.010439	-0.000419	0.000000	0.010448	0.593232	0.000000	0.000000	0.000000	0.000000	0.000000	1
113.283900	3.206148	0.000000	-0.000368	-0.000476	0.000000	0.000602	1.846531	0.000000	0.000000	0.000000	0.000000	0.000000	1
116.392892	3.206148	0.000000	-0.003251	0.000096	0.000000	0.003252	3.246421	0.000000	0.000000	0.000000	0.000000	0.000000	1
119.501884	3.206148	0.000000	-0.002407	0.000514	0.000000	0.002462	3.855769	0.000000	0.000000	0.000000	0.000000	0.000000	1
122.610876	3.206148	0.000000	-0.000218	0.001063	0.000000	0.001085	2.822552	0.000000	0.000000	0.000000	0.000000	0.000000	1
125.719868	3.206148	0.000000	0.000965	0.000487	0.000000	0.001081	1.898960	0.000000	0.000000	0.000000	0.000000	0.000000	1
128.828860	3.206148	0.000000	0.000424	0.000501	0.000000	0.000656	1.572562	0.000000	0.000000	0.000000	0.000000	0.000000	1
131.937852	3.206148	0.000000	-0.000220	0.000712	0.000000	0.000746	2.139301	0.000000	0.000000	0.000000	0.000000	0.000000	1
135.046844	3.206148	0.000000	0.000328	0.007535	0.000000	0.007543	1.655411	0.000000	0.000000	0.000000	0.000000	0.000000	1
138.155836	3.206148	0.000000	-0.006868	0.006565	0.000000	0.009500	0.802921	0.000000	0.000000	0.000000	0.000000	0.000000	1
141.264829	3.206148	0.000000	-0.008060	0.007980	0.000000	0.011342	0.976679	0.000000	0.000000	0.000000	0.000000	0.000000	1
144.373821	3.206148	0.000000	0.002614	0.009565	0.000000	0.009916	0.377138	0.000000	0.000000	0.000000	0.000000	0.000000	1
147.482813	3.206148	0.000000	-0.000667	0.008461	0.000000	0.008487	-0.449009	0.000000	0.000000	0.000000	0.000000	0.000000	1
150.591805	3.206148	0.000000	-0.008280	0.008891	0.000000	0.012149	-1.691276	0.000000	0.000000	0.000000	0.000000	0.000000	1
153.700797	3.206148	0.000000	-0.012608	0.011322	0.000000	0.016946	-2.363433	0.000000	0.000000	0.000000	0.000000	0.000000	1
156.809789	3.206148	0.000000	-0.007295	0.005831	0.000000	0.009339	-1.246921	0.000000	0.000000	0.000000	0.000000	0.000000	1
159.918781	3.206148	0.000000	-0.009694	0.007924	0.000000	0.012520	-0.244036	0.000000	0.000000	0.000000	0.000000	0.000000	1
4.469176	6.315140	0.000000	0.004838	0.005079	0.000000	0.007015	-0.177648	0.000000	0.000000	0.000000	0.000000	0.000000	1
7.578168	6.315140	0.000000	-0.001299	0.003946	0.000000	0.004154	0.372287	0.000000	0.000000	0.000000	0.000000	0.000000	1
10.687160	6.315140	0.000000	0.000188	0.006246	0.000000	0.006248	0.418064	0.000000	0.000000	0.000000	0.000000	0.000000	1
13.796152	6.315140	0.000000	0.002534	0.004237	0.000000	0.004937	0.401739	0.000000	0.000000	0.000000	0.000000	0.000000	1
16.905145	6.315140	0.000000	0.003612	0.006555	0.000000	0.007484	0.831807	0.000000	0.000000	0.000000	0.000000	0.000000	1
20.014137	6.315140	0.000000	0.007877	0.009678	0.000000	0.012478	0.725233	0.000000	0.000000	0.000000	0.000000	0.000000	1
23.123129	6.315140	0.000000	0.009444	0.008621	0.000000	0.012787	0.131675	0.000000	0.000000	0.000000	0.000000	0.000000	1
26.232121	6.315140	0.000000	0.001701	0.006513	0.000000	0.006732	-0.801515	0.000000	0.000000	0.000000	0.000000	0.000000	1
29.341113	6.315140	0.000000	-0.000803	0.006214	0.000000	0.006266	-0.482028	0.000000	0.000000	0.000000	0.000000	0.000000	1
32.450105	6.315140	0.000000	0.004393	0.007533	0.000000	0.008720	-0.332162	0.000000	0.000000	0.000000	0.000000	0.000000	1
35.559097	6.315140	0.000000	0.003461	0.005043	0.000000	0.006116	-1.228606	0.000000	0.000000	0.000000	0.000000	0.000000	1
38.668089	6.315140	0.000000	0.001166	0.000032	0.000000	0.001167	-0.816935	0.000000	0.000000	0.000000	0.000000	0.000000	1
41.777081	6.315140	0.000000	0.001934	-0.000798	0.000000	0.002092	-0.171310	0.000000	0.000000	0.000000	0.000000	0.000000	1
44.886073	6.315140	0.000000	0.003706	-0.003194	0.000000	0.004893	-1.449458	0.000000	0.000000	0.000000	0.000000	0.000000	1
47.995066	6.315140	0.000000	0.015045	-0.005833	0.000000	0.016136	-2.546327	0.000000	0.000000	0.000000	0.000000	0.000000	1
51.104058	6.315140	0.000000	0.015469	-0.010090	0.000000	0.018469	-2.769432	0.000000	0.000000	0.000000	0.000000	0.000000	1
54.213050	6.315140	0.000000	0.015080	-0.010770	0.000000	0.018531	5.549129	0.000000	0.000000	0.000000	0.000000	0.000000	1
57.322042	6.315140	0.000000	-0.062214	-0.001437	0.000000	0.062231	63.464508	0.000000	0.000000	0.000000	0.000000	0.000000	2
60.431034	6.315140	0.000000	-0.258550	0.171326	0.000000	0.310162	135.130514	0.000000	0.000000	0.000000	0.000000	0.000000	2
63.540026	6.315140	0.000000	-0.669690	0.516791	0.000000	0.845906	126.471090	0.000000	0.000000	0.000000	0.000000	0.000000	1
66.649018	6.315140	0.000000	-0.665940	0.596343	0.000000	0.893924	71.794681	0.000000	0.000000	0.000000	0.000000	0.000000	1
69.758010	6.315140	0.000000	-0.760199	0.530851	0.000000	0.927203	3.567776	0.000000	0.000000	0.000000	0.000000	0.000000	2
72.867002	6.315140	0.000000	-0.566200	0.376989	0.000000	0.680223	-36.404910	0.000000	0.000000	0.000000	0.000000	0.000000	2
75.975994	6.315140	0.000000	-0.363867	0.284073	0.000000	0.461624	-52.208928	0.000000	0.000000	0.000000	0.000000	0.000000	1
79.084987	6.315140	0.000000	-0.099576	0.088044	0.000000	0.132918	-59.659246	0.000000	0.000000	0.000000	0.000000	0.000000	2
82.193979	6.315140	0.000000	-0.012523	-0.013130	0.000000	0.018145	-28.016754	0.000000	0.000000	0.000000	0.000000	0.000000	1
85.302971	6.315140	0.000000	0.003421	-0.022074	0.000000	0.022337	-8.007216	0.000000	0.000000	0.000000	0.000000	0.000000	1
88.411963	6.315140	0.000000	0.011942	-0.021764	0.000000	0.024825	-4.170457	0.000000	0.000000	0.000000	0.000000	0.000000	1
91.520955	6.315140	0.000000	-0.016576	-0.005615	0.000000	0.017501	-1.661330	0.000000	0.000000	0.000000	0.000000	0.000000	1
94.629947	6.315140	0.000000	-0.018578	-0.002110	0.000000	0.018698	-1.417178	0.000000	0.000000	0.000000	0.000000	0.000000	1
97.738939	6.315140	0.000000	-0.018745	-0.000032	0.000000	0.018745	-1.135815	0.000000	0.000000	0.000000	0.000000	0.000000	1
100.847931	6.315140	0.000000	0.005256	-0.011022	0.000000	0.012211	-3.290037	0.000000	0.000000	0.000000	0.000000	0.000000	1
103.956923	6.315140	0.000000	0.024661	-0.029480	0.000000	0.038435	-5.123720	0.000000	0.000000	0.000000	0.000000	0.000000	2
107.065915	6.315140	0.000000	0.032585	-0.024799	0.000000	0.040948	-1.598341	0.000000	0.000000	0.000000	0.000000	0.000000	2
110.174908	6.315140	0.000000	0.023333	-0.007988	0.000000	0.024662	3.769707	0.000000	0.000000	0.000000	0.000000	0.000000	2
113.283900	6.315140	0.000000	-0.007431	0.005899	0.000000	0.009488	2.436547	0.000000	0.000000	0.000000	0.000000	0.000000	1
116.392892	6.315140	0.000000	-0.016763	-0.000285	0.000000	0.016765	-0.868767	0.000000	0.000000	0.000000	0.000000	0.000000	1
119.501884	6.315140	0.000000	-0.016799	-0.003197	0.000000	0.017100	0.048851	0.000000	0.000000	0.000000	0.000000	0.000000	1
122.610876	6.315140	0.000000	-0.005471	-0.000848	0.000000	0.005536	0.957584	0.000000	0.000000	0.000000	0.000000	0.000000	1
125.719868	6.315140	0.000000	-0.005122	0.000948	0.000000	0.005209	1.338818	0.000000	0.000000	0.000000	0.000000	0.000000	1
128.828860	6.315140	0.000000	-0.003960	0.001521	0.000000	0.004242	1.401306	0.000000	0.000000	0.000000	0.000000	0.000000	1
131.937852	6.315140	0.000000	-0.003714	0.001932	0.000000	0.004187	2.005136	0.000000	0.000000	0.000000	0.000000	0.000000	1
135.046844	6.315140	0.000000	-0.003218	0.006174	0.000000	0.006962	1.271013	0.000000	0.000000	0.000000	0.000000	0.000000	1
138.155836	6.315140	0.000000	-0.006328	0.006621	0.000000	0.009159	0.267898	0.000000	0.000000	0.000000	0.000000	0.000000	1
141.264829	6.315140	0.000000	-0.010281	0.011027	0.000000	0.015076	0.856222	0.000000	0.000000	0.000000	0.000000	0.000000	1
144.373821	6.315140	0.000000	0.001053	0.010304	0.000000	0.010358	0.943840	0.000000	0.000000	0.000000	0.000000	0.000000	1
147.482813	6.315140	0.000000	-0.000784	0.009777	0.000000	0.009809	0.540900	0.000000	0.000000	0.000000	0.000000	0.000000	1
150.591805	6.315140	0.000000	-0.002725	0.009154	0.000000	0.009551	-0.625250	0.000000	0.000000	0.000000	0.000000	0.000000	1
153.700797	6.315140	0.000000	-0.006478	0.003006	0.000000	0.007142	-1.076529	0.000000	0.000000	0.000000	0.000000	0.000000	1
156.809789	6.315140	0.000000	-0.004702	0.003231	0.000000	0.005705	-0.232648	0.000000	0.000000	0.000000	0.000000	0.000000	1
159.918781	6.315140	0.000000	-0.006106	0.005801	0.000000	0.008422	0.233300	0.000000	0.000000	0.000000	0.000000	0.000000	1
4.469176	9.424132	0.000000	0.006065	0.008577	0.000000	0.010505	0.176383	0.000000	0.000000	0.000000	0.000000	0.000000	1
7.578168	9.424132	0.000000	-0.003429	0.008472	0.000000	0.009140	-0.040037	0.000000	0.000000	0.000000	0.000000	0.000000	1
10.687160	9.424132	0.000000	-0.000365	0.007952	0.000000	0.007960	-0.657058	0.000000	0.000000	0.000000	0.000000	0.000000	1
13.796152	9.424132	0.000000	0.000185	0.007642	0.000000	0.007645	-0.209700	0.000000	0.000000	0.000000	0.000000	0.000000	1
16.905145	9.424132	0.000000	-0.001405	0.010267	0.000000	0.010363	0.718928	0.000000	0.000000	0.000000	0.000000	0.000000	1
20.014137	9.424132	0.000000	0.001016	0.006648	0.000000	0.006726	0.997533	0.000000	0.000000	0.000000	0.000000	0.000000	1
23.123129	9.424132	0.000000	0.004083	0.004944	0.000000	0.006412	1.502803	0.000000	0.000000	0.000000	0.000000	0.000000	1
26.232121	9.424132	0.000000	0.007402	0.008824	0.000000	0.011517	0.311961	0.000000	0.000000	0.000000	0.000000	0.000000	1
29.341113	9.424132	0.000000	0.001638	0.003692	0.000000	0.004039	-0.444177	0.000000	0.000000	0.000000	0.000000	0.000000	1
32.450105	9.424132	0.000000	0.002009	0.002926	0.000000	0.003549	1.199525	0.000000	0.000000	0.000000	0.000000	0.000000	1
35.559097	9.424132	0.000000	0.005012	0.006862	0.000000	0.008497	0.831925	0.000000	0.000000	0.000000	0.000000	0.000000	1
38.668089	9.424132	0.000000	0.002786	0.005543	0.000000	0.006204	-0.364512	0.000000	0.000000	0.000000	0.000000	0.000000	1
41.777081	9.424132	0.000000	-0.001538	0.007148	0.000000	0.007312	-0.442179	0.000000	0.000000	0.000000	0.000000	0.000000	1
44.886073	9.424132	0.000000	-0.003230	0.003260	0.000000	0.004589	-2.163906	0.000000	0.000000	0.000000	0.000000	0.000000	1
47.995066	9.424132	0.000000	0.010548	-0.017581	0.000000	0.020503	-1.377641	0.000000	0.000000	0.000000	0.000000	0.000000	1
51.104058	9.424132	0.000000	0.017118	-0.012152	0.000000	0.020992	6.765938	0.000000	0.000000	0.000000	0.000000	0.000000	1
54.213050	9.424132	0.000000	0.016941	-0.009982	0.000000	0.019664	51.451206	0.000000	0.000000	0.000000	0.000000	0.000000	1
57.322042	9.424132	0.000000	-0.113996	0.056630	0.000000	0.127287	105.141611	0.000000	0.000000	0.000000	0.000000	0.000000	2
60.431034	9.424132	0.000000	-0.637077	0.445424	0.000000	0.777347	91.892762	0.000000	0.000000	0.000000	0.000000	0.000000	1
63.540026	9.424132	0.000000	-0.701228	0.531118	0.000000	0.879663	43.068355	0.000000	0.000000	0.000000	0.000000	0.000000	1
66.649018	9.424132	0.000000	-0.819787	0.571197	0.000000	0.999158	-12.248001	0.000000	0.000000	0.000000	0.000000	0.000000	2
69.758010	9.424132	0.000000	-0.785009	0.562725	0.000000	0.965867	-83.770539	0.000000	0.000000	0.000000	0.000000	0.000000	2
72.867002	9.424132	0.000000	-0.308967	0.311700	0.000000	0.438882	-108.580011	0.000000	0.000000	0.000000	0.000000	0.000000	1
75.975994	9.424132	0.000000	-0.220658	0.191710	0.000000	0.292306	-83.822400	0.000000	0.000000	0.000000	0.000000	0.000000	1
79.084987	9.424132	0.000000	-0.071938	0.075290	0.000000	0.104133	-48.935345	0.000000	0.000000	0.000000	0.000000	0.000000	1
82.193979	9.424132	0.000000	0.011502	0.024742	0.000000	0.027285	-15.473646	0.000000	0.000000	0.000000	0.000000	0.000000	1
85.302971	9.424132	0.000000	0.013591	0.017357	0.000000	0.022045	-3.202655	0.000000	0.000000	0.000000	0.000000	0.000000	1
88.411963	9.424132	0.000000	0.016442	0.015903	0.000000	0.022875	-1.781655	0.000000	0.000000	0.000000	0.000000	0.000000	1
91.520955	9.424132	0.000000	-0.001129	0.011533	0.000000	0.011588	-1.753237	0.000000	0.000000	0.000000	0.000000	0.000000	1
94.629947	9.424132	0.000000	-0.003768	0.010027	0.000000	0.010712	-0.155574	0.000000	0.000000	0.000000	0.000000	0.000000	1
97.738939	9.424132	0.000000	0.002911	0.023263	0.000000	0.023444	2.168826	0.000000	0.000000	0.000000	0.000000	0.000000	1
100.847931	9.424132	0.000000	0.006509	0.043858	0.000000	0.044339	-1.282332	0.000000	0.000000	0.000000	0.000000	0.000000	1
103.956923	9.424132	0.000000	0.023206	0.016903	0.000000	0.028709	-4.746412	0.000000	0.000000	0.000000	0.000000	0.000000	1
107.065915	9.424132	0.000000	0.048570	-0.030869	0.000000	0.057550	1.309353	0.000000	0.000000	0.000000	0.000000	0.000000	1
110.174908	9.424132	0.000000	0.006286	-0.028597	0.000000	0.029279	10.090638	0.000000	0.000000	0.000000	0.000000	0.000000	2
113.283900	9.424132	0.000000	-0.005502	0.008639	0.000000	0.010242	4.675320	0.000000	0.000000	0.000000	0.000000	0.000000	1
116.392892	9.424132	0.000000	-0.002250	0.002665	0.000000	0.003487	-3.441297	0.000000	0.000000	0.000000	0.000000	0.000000	1
119.501884	9.424132	0.000000	-0.001978	0.001530	0.000000	0.002501	-1.978715	0.000000	0.000000	0.000000	0.000000	0.000000	1
122.610876	9.424132	0.000000	-0.004469	0.001648	0.000000	0.004763	-0.301189	0.000000	0.000000	0.000000	0.000000	0.000000	1
125.719868	9.424132	0.000000	-0.005572	0.002475	0.000000	0.006097	1.041556	0.000000	0.000000	0.000000	0.000000	0.000000	1
128.828860	9.424132	0.000000	-0.006966	0.006058	0.000000	0.009232	1.532836	0.000000	0.000000	0.000000	0.000000	0.000000	1
131.937852	9.424132	0.000000	-0.007552	0.006487	0.000000	0.009955	1.501205	0.000000	0.000000	0.000000	0.000000	0.000000	1
135.046844	9.424132	0.000000	-0.004909	0.012299	0.000000	0.013242	0.058465	0.000000	0.000000	0.000000	0.000000	0.000000	1
138.155836	9.424132	0.000000	-0.005605	0.006326	0.000000	0.008452	-0.830117	0.000000	0.000000	0.000000	0.000000	0.000000	1
141.264829	9.424132	0.000000	-0.006740	0.007419	0.000000	0.010024	0.212939	0.000000	0.000000	0.000000	0.000000	0.000000	1
144.373821	9.424132	0.000000	-0.009077	0.009467	0.000000	0.013115	0.167055	0.000000	0.000000	0.000000	0.000000	0.000000	1
147.482813	9.424132	0.000000	-0.005952	0.005566	0.000000	0.008149	0.191644	0.000000	0.000000	0.000000	0.000000	0.000000	1
150.591805	9.424132	0.000000	-0.005449	0.006464	0.000000	0.008454	-0.098988	0.000000	0.000000	0.000000	0.000000	0.000000	1
153.700797	9.424132	0.000000	-0.010509	0.003172	0.000000	0.010978	0.103523	0.000000	0.000000	0.000000	0.000000	0.000000	1
156.809789	9.424132	0.000000	-0.006764	0.002155	0.000000	0.007100	1.405770	0.000000	0.000000	0.000000	0.000000	0.000000	1
159.918781	9.424132	0.000000	-0.003364	0.004685	0.000000	0.005767	1.795150	0.000000	0.000000	0.000000	0.000000	0.000000	1
4.469176	12.533124	0.000000	0.001306	0.004098	0.000000	0.004301	0.385044	0.000000	0.000000	0.000000	0.000000	0.000000	1
7.578168	12.533124	0.000000	0.000910	0.006311	0.000000	0.006376	0.221029	0.000000	0.000000	0.000000	0.000000	0.000000	1
10.687160	12.533124	0.000000	0.007223	0.011106	0.000000	0.013248	-0.387323	0.000000	0.000000	0.000000	0.000000	0.000000	1
13.796152	12.533124	0.000000	0.005507	0.010589	0.000000	0.011935	-0.828893	0.000000	0.000000	0.000000	0.000000	0.000000	1
16.905145	12.533124	0.000000	-0.001125	0.009194	0.000000	0.009262	-0.490685	0.000000	0.000000	0.000000	0.000000	0.000000	1
20.014137	12.533124	0.000000	-0.000817	0.009822	0.000000	0.009856	-0.130305	0.000000	0.000000	0.000000	0.000000	0.000000	1
23.123129	12.533124	0.000000	-0.003283	0.007733	0.000000	0.008401	0.636075	0.000000	0.000000	0.000000	0.000000	0.000000	1
26.232121	12.533124	0.000000	-0.001571	0.008594	0.000000	0.008736	0.457685	0.000000	0.000000	0.000000	0.000000	0.000000	1
29.341113	12.533124	0.000000	0.000634	0.002569	0.000000	0.002646	-0.166528	0.000000	0.000000	0.000000	0.000000	0.000000	1
32.450105	12.533124	0.000000	-0.005751	-0.002221	0.000000	0.006165	2.277299	0.000000	0.000000	0.000000	0.000000	0.000000	1
35.559097	12.533124	0.000000	0.000078	0.005001	0.000000	0.005001	4.051841	0.000000	0.000000	0.000000	0.000000	0.000000	1
38.668089	12.533124	0.000000	0.006168	0.008830	0.000000	0.010771	1.880657	0.000000	0.000000	0.000000	0.000000	0.000000	1
41.777081	12.533124	0.000000	0.001290	0.007181	0.000000	0.007296	-1.266744	0.000000	0.000000	0.000000	0.000000	0.000000	1
44.886073	12.533124	0.000000	0.000430	0.006064	0.000000	0.006079	-4.069223	0.000000	0.000000	0.000000	0.000000	0.000000	1
47.995066	12.533124	0.000000	-0.005206	-0.019593	0.000000	0.020272	2.945788	0.000000	0.000000	0.000000	0.000000	0.000000	1
51.104058	12.533124	0.000000	0.018070	-0.031659	0.000000	0.036453	43.255446	0.000000	0.000000	0.000000	0.000000	0.000000	1
54.213050	12.533124	0.000000	-0.108300	-0.000000	0.000000	0.108300	131.799211	0.000000	0.000000	0.000000	0.000000	0.000000	2
57.322042	12.533124	0.000000	-0.290841	0.629034	0.000000	0.693017	112.168406	0.000000	0.000000	0.000000	0.000000	0.000000	1
60.431034	12.533124	0.000000	-0.639548	0.560542	0.000000	0.850428	-5.786526	0.000000	0.000000	0.000000	0.000000	0.000000	1
63.540026	12.533124	0.000000	-0.686479	0.439972	0.000000	0.815371	-36.405755	0.000000	0.000000	0.000000	0.000000	0.000000	1
66.649018	12.533124	0.000000	-0.620410	0.586128	0.000000	0.853496	-58.688971	0.000000	0.000000	0.000000	0.000000	0.000000	1
69.758010	12.533124	0.000000	-0.456083	0.436453	0.000000	0.631270	-98.734989	0.000000	0.000000	0.000000	0.000000	0.000000	2
72.867002	12.533124	0.000000	-0.168588	0.292310	0.000000	0.337442	-91.792398	0.000000	0.000000	0.000000	0.000000	0.000000	1
75.975994	12.533124	0.000000	-0.062633	0.125235	0.000000	0.140024	-61.863646	0.000000	0.000000	0.000000	0.000000	0.000000	2
79.084987	12.533124	0.000000	-0.014260	0.054640	0.000000	0.056470	-30.570157	0.000000	0.000000	0.000000	0.000000	0.000000	2
82.193979	12.533124	0.000000	0.006177	0.029820	0.000000	0.030453	-8.246829	0.000000	0.000000	0.000000	0.000000	0.000000	1
85.302971	12.533124	0.000000	0.020831	0.035890	0.000000	0.041498	1.017756	0.000000	0.000000	0.000000	0.000000	0.000000	1
88.411963	12.533124	0.000000	0.010548	0.028601	0.000000	0.030484	2.580939	0.000000	0.000000	0.000000	0.000000	0.000000	1
91.520955	12.533124	0.000000	-0.002071	0.015892	0.000000	0.016027	0.234348	0.000000	0.000000	0.000000	0.000000	0.000000	1
94.629947	12.533124	0.000000	-0.014959	0.008328	0.000000	0.017121	2.275033	0.000000	0.000000	0.000000	0.000000	0.000000	1
97.738939	12.533124	0.000000	0.004476	0.027945	0.000000	0.028301	5.644961	0.000000	0.000000	0.000000	0.000000	0.000000	1
100.847931	12.533124	0.000000	0.000102	0.048427	0.000000	0.048427	1.237159	0.000000	0.000000	0.000000	0.000000	0.000000	1
103.956923	12.533124	0.000000	0.003613	0.030081	0.000000	0.030297	-0.499279	0.000000	0.000000	0.000000	0.000000	0.000000	1
107.065915	12.533124	0.000000	0.001028	0.014796	0.000000	0.014832	1.252847	0.000000	0.000000	0.000000	0.000000	0.000000	2
110.174908	12.533124	0.000000	-0.027255	-0.002595	0.000000	0.027378	3.286466	0.000000	0.000000	0.000000	0.000000	0.000000	1
113.283900	12.533124	0.000000	-0.009827	0.020930	0.000000	0.023123	0.303471	0.000000	0.000000	0.000000	0.000000	0.000000	1
116.392892	12.533124	0.000000	-0.001017	0.003831	0.000000	0.003963	-2.723629	0.000000	0.000000	0.000000	0.000000	0.000000	1
119.501884	12.533124	0.000000	-0.001448	0.003099	0.000000	0.003420	-0.133632	0.000000	0.000000	0.000000	0.000000	0.000000	1
122.610876	12.533124	0.000000	-0.005421	0.003710	0.000000	0.006569	0.555138	0.000000	0.000000	0.000000	0.000000	0.000000	1
125.719868	12.533124	0.000000	-0.005180	0.004966	0.000000	0.007176	1.503567	0.000000	0.000000	0.000000	0.000000	0.000000	1
128.828860	12.533124	0.000000	-0.006952	0.015369	0.000000	0.016868	1.051164	0.000000	0.000000	0.000000	0.000000	0.000000	1
131.937852	12.533124	0.000000	-0.015021	0.016733	0.000000	0.022486	-0.544716	0.000000	0.000000	0.000000	0.000000	0.000000	1
135.046844	12.533124	0.000000	-0.004092	0.009090	0.000000	0.009969	-1.574321	0.000000	0.000000	0.000000	0.000000	0.000000	1
138.155836	12.533124	0.000000	-0.004514	0.002577	0.000000	0.005197	-0.779104	0.000000	0.000000	0.000000	0.000000	0.000000	1
141.264829	12.533124	0.000000	-0.004496	0.001889	0.000000	0.004877	0.773052	0.000000	0.000000	0.000000	0.000000	0.000000	1
144.373821	12.533124	0.000000	-0.005246	0.004994	0.000000	0.007243	-0.360233	0.000000	0.000000	0.000000	0.000000	0.000000	1
147.482813	12.533124	0.000000	-0.003243	0.001729	0.000000	0.003675	-1.013891	0.000000	0.000000	0.000000	0.000000	0.000000	1
150.591805	12.533124	0.000000	-0.004723	0.003702	0.000000	0.006001	-1.024632	0.000000	0.000000	0.000000	0.000000	0.000000	1
153.700797	12.533124	0.000000	-0.009552	0.001296	0.000000	0.009639	-0.752194	0.000000	0.000000	0.000000	0.000000	0.000000	1
156.809789	12.533124	0.000000	-0.012571	0.004803	0.000000	0.013457	0.916353	0.000000	0.000000	0.000000	0.000000	0.000000	1
159.918781	12.533124	0.000000	-0.009742	0.007995	0.000000	0.012603	1.464511	0.000000	0.000000	0.000000	0.000000	0.000000	1
4.469176	15.642117	0.000000	0.001270	0.003772	0.000000	0.003980	-0.230231	0.000000	0.000000	0.000000	0.000000	0.000000	1
7.578168	15.642117	0.000000	0.002748	0.005622	0.000000	0.006258	0.248855	0.000000	0.000000	0.000000	0.000000	0.000000	1
10.687160	15.642117	0.000000	0.004495	0.008298	0.000000	0.009438	0.716367	0.000000	0.000000	0.000000	0.000000	0.000000	1
13.796152	15.642117	0.000000	0.004294	0.008270	0.000000	0.009319	-0.225815	0.000000	0.000000	0.000000	0.000000	0.000000	1
16.905145	15.642117	0.000000	0.000862	0.004538	0.000000	0.004619	-0.764295	0.000000	0.000000	0.000000	0.000000	0.000000	1
20.014137	15.642117	0.000000	0.000042	0.006264	0.000000	0.006264	-0.556166	0.000000	0.000000	0.000000	0.000000	0.000000	1
23.123129	15.642117	0.000000	0.000053	0.005831	0.000000	0.005831	-0.671319	0.000000	0.000000	0.000000	0.000000	0.000000	1
26.232121	15.642117	0.000000	-0.000199	0.005731	0.000000	0.005734	-0.658660	0.000000	0.000000	0.000000	0.000000	0.000000	1
29.341113	15.642117	0.000000	-0.001575	0.006351	0.000000	0.006543	-0.816886	0.000000	0.000000	0.000000	0.000000	0.000000	1
32.450105	15.642117	0.000000	-0.014200	-0.001121	0.000000	0.014244	3.888315	0.000000	0.000000	0.000000	0.000000	0.000000	1
35.559097	15.642117	0.000000	-0.005162	0.009152	0.000000	0.010508	9.872631	0.000000	0.000000	0.000000	0.000000	0.000000	1
38.668089	15.642117	0.000000	-0.001713	0.033883	0.000000	0.033926	7.214713	0.000000	0.000000	0.000000	0.000000	0.000000	1
41.777081	15.642117	0.000000	-0.003880	0.029768	0.000000	0.030020	0.483827	0.000000	0.000000	0.000000	0.000000	0.000000	1
44.886073	15.642117	0.000000	-0.001574	0.002663	0.000000	0.003094	-1.961695	0.000000	0.000000	0.000000	0.000000	0.000000	1
47.995066	15.642117	0.000000	-0.019762	-0.022508	0.000000	0.029952	14.774037	0.000000	0.000000	0.000000	0.000000	0.000000	1
51.104058	15.642117	0.000000	-0.111890	-0.021186	0.000000	0.113878	90.408495	0.000000	0.000000	0.000000	0.000000	0.000000	2
54.213050	15.642117	0.000000	-0.322088	0.379203	0.000000	0.497530	172.660588	0.000000	0.000000	0.000000	0.000000	0.000000	2
57.322042	15.642117	0.000000	-0.471073	0.702613	0.000000	0.845917	114.862175	0.000000	0.000000	0.000000	0.000000	0.000000	1
60.431034	15.642117	0.000000	-0.597273	0.579184	0.000000	0.831979	-22.452790	0.000000	0.000000	0.000000	0.000000	0.000000	1
63.540026	15.642117	0.000000	-0.527140	0.358944	0.000000	0.637743	-63.058289	0.000000	0.000000	0.000000	0.000000	0.000000	1
66.649018	15.642117	0.000000	-0.438871	0.265652	0.000000	0.513009	-38.654221	0.000000	0.000000	0.000000	0.000000	0.000000	1
69.758010	15.642117	0.000000	-0.269829	0.325765	0.000000	0.423002	-28.532143	0.000000	0.000000	0.000000	0.000000	0.000000	1
72.867002	15.642117	0.000000	-0.109540	0.267753	0.000000	0.289294	-34.005040	0.000000	0.000000	0.000000	0.000000	0.000000	2
75.975994	15.642117	0.000000	-0.062144	0.108704	0.000000	0.125214	-30.945288	0.000000	0.000000	0.000000	0.000000	0.000000	2
79.084987	15.642117	0.000000	0.016022	0.045245	0.000000	0.047998	-9.245668	0.000000	0.000000	0.000000	0.000000	0.000000	1
82.193979	15.642117	0.000000	0.019157	0.048251	0.000000	0.051915	0.027934	0.000000	0.000000	0.000000	0.000000	0.000000	1
85.302971	15.642117	0.000000	-0.012581	0.012662	0.000000	0.017850	1.446853	0.000000	0.000000	0.000000	0.000000	0.000000	1
88.411963	15.642117	0.000000	-0.013176	0.010536	0.000000	0.016870	7.253646	0.000000	0.000000	0.000000	0.000000	0.000000	1
91.520955	15.642117	0.000000	0.003524	0.041921	0.000000	0.042069	3.991965	0.000000	0.000000	0.000000	0.000000	0.000000	1
94.629947	15.642117	0.000000	-0.001564	0.044679	0.000000	0.044707	2.295228	0.000000	0.000000	0.000000	0.000000	0.000000	1
97.738939	15.642117	0.000000	-0.001453	0.067368	0.000000	0.067384	2.704961	0.000000	0.000000	0.000000	0.000000	0.000000	2
100.847931	15.642117	0.000000	0.000754	0.058773	0.000000	0.058778	-2.376613	0.000000	0.000000	0.000000	0.000000	0.000000	2
103.956923	15.642117	0.000000	-0.016157	0.044990	0.000000	0.047803	-1.330746	0.000000	0.000000	0.000000	0.000000	0.000000	1
107.065915	15.642117	0.000000	0.009561	0.064854	0.000000	0.065555	-0.641049	0.000000	0.000000	0.000000	0.000000	0.000000	1
110.174908	15.642117	0.000000	0.010507	0.073842	0.000000	0.074586	-3.778769	0.000000	0.000000	0.000000	0.000000	0.000000	1
113.283900	15.642117	0.000000	-0.012305	0.057447	0.000000	0.058751	-5.727290	0.000000	0.000000	0.000000	0.000000	0.000000	1
116.392892	15.642117	0.000000	-0.009487	0.020654	0.000000	0.022728	-1.879263	0.000000	0.000000	0.000000	0.000000	0.000000	1
119.501884	15.642117	0.000000	-0.003055	0.010122	0.000000	0.010573	4.371510	0.000000	0.000000	0.000000	0.000000	0.000000	1