TITLE = "PIV Result  219 "
VARIABLES = "X (mm)""Y (mm)""Z (mm)""U (m/s)""V (m/s)""W (m/s)""Speed (m/s)""Vorticity""U-std""V-std""W-std""Speed-std""Vorticity-std""Flag"
ZONE T="ZONE 219 "
I= 51 , J= 16 , K= 1 , F=POINT
DT=(DOUBLE DOUBLE DOUBLE DOUBLE DOUBLE DOUBLE DOUBLE DOUBLE DOUBLE DOUBLE DOUBLE DOUBLE DOUBLE DOUBLE)
4.469176	3.206148	0.000000	0.000405	0.013420	0.000000	0.013426	4.555442	0.000000	0.000000	0.000000	0.000000	0.000000	2
7.578168	3.206148	0.000000	0.008153	0.030007	0.000000	0.031095	2.797943	0.000000	0.000000	0.000000	0.000000	0.000000	1
10.687160	3.206148	0.000000	0.009412	0.031504	0.000000	0.032880	-1.454417	0.000000	0.000000	0.000000	0.000000	0.000000	1
13.796152	3.206148	0.000000	0.005659	0.007883	0.000000	0.009704	-1.794532	0.000000	0.000000	0.000000	0.000000	0.000000	1
16.905145	3.206148	0.000000	0.001863	0.006823	0.000000	0.007073	0.017409	0.000000	0.000000	0.000000	0.000000	0.000000	1
20.014137	3.206148	0.000000	0.000975	0.006702	0.000000	0.006773	-0.757734	0.000000	0.000000	0.000000	0.000000	0.000000	1
23.123129	3.206148	0.000000	0.000945	0.004706	0.000000	0.004800	-1.437780	0.000000	0.000000	0.000000	0.000000	0.000000	1
26.232121	3.206148	0.000000	0.000998	0.007652	0.000000	0.007717	-0.962144	0.000000	0.000000	0.000000	0.000000	0.000000	1
29.341113	3.206148	0.000000	0.001094	0.008474	0.000000	0.008544	0.756525	0.000000	0.000000	0.000000	0.000000	0.000000	1
32.450105	3.206148	0.000000	-0.006369	0.014259	0.000000	0.015616	-1.029824	0.000000	0.000000	0.000000	0.000000	0.000000	1
35.559097	3.206148	0.000000	-0.005971	0.001251	0.000000	0.006101	-3.303490	0.000000	0.000000	0.000000	0.000000	0.000000	1
38.668089	3.206148	0.000000	-0.004159	0.000472	0.000000	0.004186	-2.146424	0.000000	0.000000	0.000000	0.000000	0.000000	1
41.777081	3.206148	0.000000	-0.000985	0.000535	0.000000	0.001121	-1.270102	0.000000	0.000000	0.000000	0.000000	0.000000	1
44.886073	3.206148	0.000000	0.004384	-0.000940	0.000000	0.004483	-0.722147	0.000000	0.000000	0.000000	0.000000	0.000000	1
47.995066	3.206148	0.000000	0.003882	-0.001692	0.000000	0.004235	3.300076	0.000000	0.000000	0.000000	0.000000	0.000000	1
51.104058	3.206148	0.000000	-0.003354	-0.001116	0.000000	0.003534	18.366472	0.000000	0.000000	0.000000	0.000000	0.000000	1
54.213050	3.206148	0.000000	-0.035005	0.006477	0.000000	0.035599	41.311460	0.000000	0.000000	0.000000	0.000000	0.000000	1
57.322042	3.206148	0.000000	-0.077572	0.068844	0.000000	0.103716	50.716342	0.000000	0.000000	0.000000	0.000000	0.000000	2
60.431034	3.206148	0.000000	-0.090580	0.083590	0.000000	0.123256	30.270102	0.000000	0.000000	0.000000	0.000000	0.000000	2
63.540026	3.206148	0.000000	-0.097084	0.090963	0.000000	0.133040	8.981003	0.000000	0.000000	0.000000	0.000000	0.000000	2
66.649018	3.206148	0.000000	-0.100336	0.094649	0.000000	0.137934	14.049574	0.000000	0.000000	0.000000	0.000000	0.000000	2
69.758010	3.206148	0.000000	-0.252089	0.096817	0.000000	0.270042	29.711310	0.000000	0.000000	0.000000	0.000000	0.000000	2
72.867002	3.206148	0.000000	-0.473068	0.147429	0.000000	0.495508	35.449405	0.000000	0.000000	0.000000	0.000000	0.000000	2
75.975994	3.206148	0.000000	-0.279423	0.221165	0.000000	0.356358	83.032008	0.000000	0.000000	0.000000	0.000000	0.000000	1
79.084987	3.206148	0.000000	-0.436310	0.442942	0.000000	0.621743	163.466196	0.000000	0.000000	0.000000	0.000000	0.000000	2
82.193979	3.206148	0.000000	-0.559298	1.041842	0.000000	1.182476	5.808326	0.000000	0.000000	0.000000	0.000000	0.000000	1
85.302971	3.206148	0.000000	-0.398738	0.832925	0.000000	0.923448	-196.910450	0.000000	0.000000	0.000000	0.000000	0.000000	1
88.411963	3.206148	0.000000	-0.120353	0.044053	0.000000	0.128162	-113.070946	0.000000	0.000000	0.000000	0.000000	0.000000	1
91.520955	3.206148	0.000000	-0.018859	0.022937	0.000000	0.029695	-6.579529	0.000000	0.000000	0.000000	0.000000	0.000000	1
94.629947	3.206148	0.000000	0.007041	0.031509	0.000000	0.032286	-5.560798	0.000000	0.000000	0.000000	0.000000	0.000000	1
97.738939	3.206148	0.000000	0.019126	0.005478	0.000000	0.019895	-7.377189	0.000000	0.000000	0.000000	0.000000	0.000000	1
100.847931	3.206148	0.000000	-0.000207	-0.000392	0.000000	0.000444	-0.337559	0.000000	0.000000	0.000000	0.000000	0.000000	1
103.956923	3.206148	0.000000	-0.001013	-0.000763	0.000000	0.001268	1.774568	0.000000	0.000000	0.000000	0.000000	0.000000	1
107.065915	3.206148	0.000000	-0.000042	-0.000191	0.000000	0.000196	2.075519	0.000000	0.000000	0.000000	0.000000	0.000000	1
110.174908	3.206148	0.000000	0.001987	-0.000099	0.000000	0.001989	2.314191	0.000000	0.000000	0.000000	0.000000	0.000000	1
113.283900	3.206148	0.000000	0.002407	0.000730	0.000000	0.002516	2.932692	0.000000	0.000000	0.000000	0.000000	0.000000	1
116.392892	3.206148	0.000000	0.001510	0.000592	0.000000	0.001622	1.945405	0.000000	0.000000	0.000000	0.000000	0.000000	1
119.501884	3.206148	0.000000	0.002009	0.000318	0.000000	0.002034	1.191598	0.000000	0.000000	0.000000	0.000000	0.000000	1
122.610876	3.206148	0.000000	0.001387	0.000614	0.000000	0.001517	1.167497	0.000000	0.000000	0.000000	0.000000	0.000000	1
125.719868	3.206148	0.000000	0.000630	0.000402	0.000000	0.000747	-0.116158	0.000000	0.000000	0.000000	0.000000	0.000000	1
128.828860	3.206148	0.000000	0.000671	0.000004	0.000000	0.000671	-1.281741	0.000000	0.000000	0.000000	0.000000	0.000000	1
131.937852	3.206148	0.000000	0.000597	-0.000291	0.000000	0.000664	2.056421	0.000000	0.000000	0.000000	0.000000	0.000000	1
135.046844	3.206148	0.000000	-0.005117	0.011400	0.000000	0.012496	2.358711	0.000000	0.000000	0.000000	0.000000	0.000000	1
138.155836	3.206148	0.000000	-0.000813	0.008153	0.000000	0.008193	-0.585525	0.000000	0.000000	0.000000	0.000000	0.000000	1
141.264829	3.206148	0.000000	0.000007	0.006894	0.000000	0.006894	0.451794	0.000000	0.000000	0.000000	0.000000	0.000000	1
144.373821	3.206148	0.000000	-0.001120	0.004049	0.000000	0.004201	2.299079	0.000000	0.000000	0.000000	0.000000	0.000000	1
147.482813	3.206148	0.000000	-0.003965	0.011593	0.000000	0.012253	1.039537	0.000000	0.000000	0.000000	0.000000	0.000000	1
150.591805	3.206148	0.000000	-0.003621	0.007050	0.000000	0.007925	-1.115775	0.000000	0.000000	0.000000	0.000000	0.000000	1
153.700797	3.206148	0.000000	-0.003168	0.005103	0.000000	0.006006	-1.053102	0.000000	0.000000	0.000000	0.000000	0.000000	1
156.809789	3.206148	0.000000	-0.000439	0.000730	0.000000	0.000851	-0.131746	0.000000	0.000000	0.000000	0.000000	0.000000	1
159.918781	3.206148	0.000000	-0.003528	0.001764	0.000000	0.003945	0.710066	0.000000	0.000000	0.000000	0.000000	0.000000	1
4.469176	6.315140	0.000000	0.000364	0.005908	0.000000	0.005920	2.905124	0.000000	0.000000	0.000000	0.000000	0.000000	1
7.578168	6.315140	0.000000	0.005351	0.014804	0.000000	0.015741	2.151163	0.000000	0.000000	0.000000	0.000000	0.000000	1
10.687160	6.315140	0.000000	0.007009	0.014570	0.000000	0.016168	0.291668	0.000000	0.000000	0.000000	0.000000	0.000000	1
13.796152	6.315140	0.000000	0.004350	0.009921	0.000000	0.010832	0.321227	0.000000	0.000000	0.000000	0.000000	0.000000	1
16.905145	6.315140	0.000000	0.002238	0.012286	0.000000	0.012488	0.700490	0.000000	0.000000	0.000000	0.000000	0.000000	1
20.014137	6.315140	0.000000	0.000246	0.010030	0.000000	0.010033	-0.132368	0.000000	0.000000	0.000000	0.000000	0.000000	1
23.123129	6.315140	0.000000	0.008745	0.011698	0.000000	0.014605	-0.859812	0.000000	0.000000	0.000000	0.000000	0.000000	1
26.232121	6.315140	0.000000	0.002613	0.007687	0.000000	0.008119	-1.005685	0.000000	0.000000	0.000000	0.000000	0.000000	1
29.341113	6.315140	0.000000	0.001387	0.007288	0.000000	0.007419	0.255531	0.000000	0.000000	0.000000	0.000000	0.000000	1
32.450105	6.315140	0.000000	-0.002603	0.016455	0.000000	0.016660	-1.671377	0.000000	0.000000	0.000000	0.000000	0.000000	1
35.559097	6.315140	0.000000	-0.004096	0.011404	0.000000	0.012117	-3.692709	0.000000	0.000000	0.000000	0.000000	0.000000	1
38.668089	6.315140	0.000000	0.000026	0.000860	0.000000	0.000861	-2.055496	0.000000	0.000000	0.000000	0.000000	0.000000	1
41.777081	6.315140	0.000000	-0.002433	-0.005778	0.000000	0.006269	-1.363619	0.000000	0.000000	0.000000	0.000000	0.000000	1
44.886073	6.315140	0.000000	0.003344	-0.013275	0.000000	0.013690	-1.020851	0.000000	0.000000	0.000000	0.000000	0.000000	1
47.995066	6.315140	0.000000	0.005498	-0.014443	0.000000	0.015454	6.244949	0.000000	0.000000	0.000000	0.000000	0.000000	1
51.104058	6.315140	0.000000	-0.034763	-0.001278	0.000000	0.034787	35.905280	0.000000	0.000000	0.000000	0.000000	0.000000	2
54.213050	6.315140	0.000000	-0.113045	0.066549	0.000000	0.131179	63.812567	0.000000	0.000000	0.000000	0.000000	0.000000	2
57.322042	6.315140	0.000000	-0.193914	0.138678	0.000000	0.238400	57.074692	0.000000	0.000000	0.000000	0.000000	0.000000	2
60.431034	6.315140	0.000000	-0.226488	0.173511	0.000000	0.285312	31.206873	0.000000	0.000000	0.000000	0.000000	0.000000	1
63.540026	6.315140	0.000000	-0.103588	0.098336	0.000000	0.142830	20.160052	0.000000	0.000000	0.000000	0.000000	0.000000	1
66.649018	6.315140	0.000000	-0.110298	0.115261	0.000000	0.159533	21.557430	0.000000	0.000000	0.000000	0.000000	0.000000	1
69.758010	6.315140	0.000000	-0.393881	0.098984	0.000000	0.406128	37.402485	0.000000	0.000000	0.000000	0.000000	0.000000	1
72.867002	6.315140	0.000000	-0.415621	0.195874	0.000000	0.459464	65.135692	0.000000	0.000000	0.000000	0.000000	0.000000	1
75.975994	6.315140	0.000000	-0.313322	0.354688	0.000000	0.473259	88.114013	0.000000	0.000000	0.000000	0.000000	0.000000	1
79.084987	6.315140	0.000000	-0.666844	0.692062	0.000000	0.961057	81.568821	0.000000	0.000000	0.000000	0.000000	0.000000	2
82.193979	6.315140	0.000000	-0.567877	1.063330	0.000000	1.205469	-73.358838	0.000000	0.000000	0.000000	0.000000	0.000000	1
85.302971	6.315140	0.000000	-0.212987	0.312370	0.000000	0.378072	-177.173256	0.000000	0.000000	0.000000	0.000000	0.000000	2
88.411963	6.315140	0.000000	-0.057067	0.038550	0.000000	0.068868	-80.798295	0.000000	0.000000	0.000000	0.000000	0.000000	2
91.520955	6.315140	0.000000	-0.024979	0.022410	0.000000	0.033559	-7.049281	0.000000	0.000000	0.000000	0.000000	0.000000	1
94.629947	6.315140	0.000000	0.027931	0.041207	0.000000	0.049781	-3.805131	0.000000	0.000000	0.000000	0.000000	0.000000	1
97.738939	6.315140	0.000000	0.019046	0.006296	0.000000	0.020060	-6.758921	0.000000	0.000000	0.000000	0.000000	0.000000	2
100.847931	6.315140	0.000000	0.000935	0.003237	0.000000	0.003370	-1.851389	0.000000	0.000000	0.000000	0.000000	0.000000	1
103.956923	6.315140	0.000000	-0.009053	0.002503	0.000000	0.009393	0.790225	0.000000	0.000000	0.000000	0.000000	0.000000	1
107.065915	6.315140	0.000000	-0.006836	0.003372	0.000000	0.007623	0.434675	0.000000	0.000000	0.000000	0.000000	0.000000	1
110.174908	6.315140	0.000000	-0.008182	-0.004148	0.000000	0.009174	-0.004154	0.000000	0.000000	0.000000	0.000000	0.000000	1
113.283900	6.315140	0.000000	-0.006411	-0.004721	0.000000	0.007961	0.882129	0.000000	0.000000	0.000000	0.000000	0.000000	1
116.392892	6.315140	0.000000	-0.002060	0.000257	0.000000	0.002076	0.932287	0.000000	0.000000	0.000000	0.000000	0.000000	1
119.501884	6.315140	0.000000	-0.003696	-0.001777	0.000000	0.004101	0.465876	0.000000	0.000000	0.000000	0.000000	0.000000	1
122.610876	6.315140	0.000000	-0.001487	-0.002800	0.000000	0.003170	0.536956	0.000000	0.000000	0.000000	0.000000	0.000000	1
125.719868	6.315140	0.000000	0.000564	0.001140	0.000000	0.001272	0.190665	0.000000	0.000000	0.000000	0.000000	0.000000	1
128.828860	6.315140	0.000000	0.003805	-0.003504	0.000000	0.005173	0.112846	0.000000	0.000000	0.000000	0.000000	0.000000	1
131.937852	6.315140	0.000000	0.004162	-0.004339	0.000000	0.006012	3.135781	0.000000	0.000000	0.000000	0.000000	0.000000	1
135.046844	6.315140	0.000000	-0.009545	0.016508	0.000000	0.019069	2.911619	0.000000	0.000000	0.000000	0.000000	0.000000	1
138.155836	6.315140	0.000000	-0.002220	0.009850	0.000000	0.010097	-0.135356	0.000000	0.000000	0.000000	0.000000	0.000000	1
141.264829	6.315140	0.000000	0.000372	0.006854	0.000000	0.006864	0.761036	0.000000	0.000000	0.000000	0.000000	0.000000	1
144.373821	6.315140	0.000000	-0.008154	0.011861	0.000000	0.014393	1.433187	0.000000	0.000000	0.000000	0.000000	0.000000	1
147.482813	6.315140	0.000000	-0.010250	0.010757	0.000000	0.014859	-0.425501	0.000000	0.000000	0.000000	0.000000	0.000000	1
150.591805	6.315140	0.000000	-0.001969	0.003835	0.000000	0.004311	-0.839001	0.000000	0.000000	0.000000	0.000000	0.000000	1
153.700797	6.315140	0.000000	-0.000829	0.002730	0.000000	0.002853	0.420956	0.000000	0.000000	0.000000	0.000000	0.000000	1
156.809789	6.315140	0.000000	-0.001732	0.002096	0.000000	0.002719	0.945962	0.000000	0.000000	0.000000	0.000000	0.000000	1
159.918781	6.315140	0.000000	-0.004671	0.003041	0.000000	0.005574	1.156286	0.000000	0.000000	0.000000	0.000000	0.000000	1
4.469176	9.424132	0.000000	0.003242	0.008491	0.000000	0.009089	-0.303121	0.000000	0.000000	0.000000	0.000000	0.000000	1
7.578168	9.424132	0.000000	0.004579	0.009504	0.000000	0.010550	0.550772	0.000000	0.000000	0.000000	0.000000	0.000000	1
10.687160	9.424132	0.000000	-0.002466	0.010399	0.000000	0.010687	1.428340	0.000000	0.000000	0.000000	0.000000	0.000000	1
13.796152	9.424132	0.000000	-0.005801	0.009858	0.000000	0.011438	0.952658	0.000000	0.000000	0.000000	0.000000	0.000000	1
16.905145	9.424132	0.000000	-0.002586	0.008389	0.000000	0.008779	0.130761	0.000000	0.000000	0.000000	0.000000	0.000000	1
20.014137	9.424132	0.000000	-0.000032	0.006878	0.000000	0.006878	0.831392	0.000000	0.000000	0.000000	0.000000	0.000000	1
23.123129	9.424132	0.000000	0.011484	0.012467	0.000000	0.016950	1.459515	0.000000	0.000000	0.000000	0.000000	0.000000	1
26.232121	9.424132	0.000000	0.004303	0.012606	0.000000	0.013320	0.556318	0.000000	0.000000	0.000000	0.000000	0.000000	1
29.341113	9.424132	0.000000	0.001257	0.009817	0.000000	0.009897	0.612943	0.000000	0.000000	0.000000	0.000000	0.000000	1
32.450105	9.424132	0.000000	0.008133	0.012950	0.000000	0.015292	-0.519542	0.000000	0.000000	0.000000	0.000000	0.000000	1
35.559097	9.424132	0.000000	0.003341	0.005716	0.000000	0.006620	-1.577616	0.000000	0.000000	0.000000	0.000000	0.000000	1
38.668089	9.424132	0.000000	0.000266	0.003631	0.000000	0.003640	-0.541620	0.000000	0.000000	0.000000	0.000000	0.000000	1
41.777081	9.424132	0.000000	-0.002643	0.006173	0.000000	0.006715	-1.058404	0.000000	0.000000	0.000000	0.000000	0.000000	1
44.886073	9.424132	0.000000	0.000929	-0.002948	0.000000	0.003091	0.451679	0.000000	0.000000	0.000000	0.000000	0.000000	1
47.995066	9.424132	0.000000	-0.002404	-0.014512	0.000000	0.014710	11.818825	0.000000	0.000000	0.000000	0.000000	0.000000	1
51.104058	9.424132	0.000000	-0.116910	-0.001025	0.000000	0.116914	44.765415	0.000000	0.000000	0.000000	0.000000	0.000000	1
54.213050	9.424132	0.000000	-0.351043	0.158934	0.000000	0.385346	67.315889	0.000000	0.000000	0.000000	0.000000	0.000000	1
57.322042	9.424132	0.000000	-0.334415	0.233772	0.000000	0.408023	49.734467	0.000000	0.000000	0.000000	0.000000	0.000000	1
60.431034	9.424132	0.000000	-0.314567	0.233747	0.000000	0.391906	42.717934	0.000000	0.000000	0.000000	0.000000	0.000000	1
63.540026	9.424132	0.000000	-0.199106	0.261676	0.000000	0.328813	53.477066	0.000000	0.000000	0.000000	0.000000	0.000000	1
66.649018	9.424132	0.000000	-0.236359	0.276553	0.000000	0.363795	43.214783	0.000000	0.000000	0.000000	0.000000	0.000000	1
69.758010	9.424132	0.000000	-0.464804	0.203921	0.000000	0.507569	46.249610	0.000000	0.000000	0.000000	0.000000	0.000000	2
72.867002	9.424132	0.000000	-0.507539	0.396899	0.000000	0.644302	66.900057	0.000000	0.000000	0.000000	0.000000	0.000000	1
75.975994	9.424132	0.000000	-0.569812	0.616174	0.000000	0.839259	20.523971	0.000000	0.000000	0.000000	0.000000	0.000000	1
79.084987	9.424132	0.000000	-0.594337	0.527308	0.000000	0.794537	-75.375553	0.000000	0.000000	0.000000	0.000000	0.000000	2
82.193979	9.424132	0.000000	-0.182090	0.177759	0.000000	0.254470	-128.712056	0.000000	0.000000	0.000000	0.000000	0.000000	2
85.302971	9.424132	0.000000	-0.026352	0.040903	0.000000	0.048657	-87.039806	0.000000	0.000000	0.000000	0.000000	0.000000	1
88.411963	9.424132	0.000000	-0.024102	0.036686	0.000000	0.043895	-23.602658	0.000000	0.000000	0.000000	0.000000	0.000000	1
91.520955	9.424132	0.000000	-0.000084	0.004858	0.000000	0.004858	-4.228483	0.000000	0.000000	0.000000	0.000000	0.000000	1
94.629947	9.424132	0.000000	0.014825	0.010172	0.000000	0.017979	0.413574	0.000000	0.000000	0.000000	0.000000	0.000000	1
97.738939	9.424132	0.000000	0.027960	0.003082	0.000000	0.028129	-2.308464	0.000000	0.000000	0.000000	0.000000	0.000000	1
100.847931	9.424132	0.000000	0.023187	-0.001251	0.000000	0.023221	0.157825	0.000000	0.000000	0.000000	0.000000	0.000000	1
103.956923	9.424132	0.000000	-0.010703	0.016793	0.000000	0.019914	0.780832	0.000000	0.000000	0.000000	0.000000	0.000000	1
107.065915	9.424132	0.000000	-0.011737	0.010254	0.000000	0.015585	-2.630325	0.000000	0.000000	0.000000	0.000000	0.000000	1
110.174908	9.424132	0.000000	-0.000196	0.004981	0.000000	0.004984	-3.505413	0.000000	0.000000	0.000000	0.000000	0.000000	1
113.283900	9.424132	0.000000	-0.002289	0.004657	0.000000	0.005189	-2.058644	0.000000	0.000000	0.000000	0.000000	0.000000	1
116.392892	9.424132	0.000000	-0.004583	-0.000250	0.000000	0.004590	-0.444374	0.000000	0.000000	0.000000	0.000000	0.000000	1
119.501884	9.424132	0.000000	-0.002599	0.000880	0.000000	0.002744	0.081193	0.000000	0.000000	0.000000	0.000000	0.000000	1
122.610876	9.424132	0.000000	0.000920	0.001654	0.000000	0.001892	0.168419	0.000000	0.000000	0.000000	0.000000	0.000000	1
125.719868	9.424132	0.000000	0.000995	0.003141	0.000000	0.003295	0.757273	0.000000	0.000000	0.000000	0.000000	0.000000	1
128.828860	9.424132	0.000000	-0.002171	0.005837	0.000000	0.006227	2.546374	0.000000	0.000000	0.000000	0.000000	0.000000	1
131.937852	9.424132	0.000000	-0.005749	0.005933	0.000000	0.008262	4.414932	0.000000	0.000000	0.000000	0.000000	0.000000	1
135.046844	9.424132	0.000000	-0.010421	0.011571	0.000000	0.015572	1.845842	0.000000	0.000000	0.000000	0.000000	0.000000	1
138.155836	9.424132	0.000000	-0.011986	0.013402	0.000000	0.017980	-1.361747	0.000000	0.000000	0.000000	0.000000	0.000000	1
141.264829	9.424132	0.000000	-0.000088	0.004274	0.000000	0.004275	0.283859	0.000000	0.000000	0.000000	0.000000	0.000000	1
144.373821	9.424132	0.000000	-0.010359	0.011811	0.000000	0.015711	0.551253	0.000000	0.000000	0.000000	0.000000	0.000000	1
147.482813	9.424132	0.000000	-0.006342	0.006464	0.000000	0.009056	-1.086994	0.000000	0.000000	0.000000	0.000000	0.000000	1
150.591805	9.424132	0.000000	-0.001541	0.002366	0.000000	0.002823	0.178008	0.000000	0.000000	0.000000	0.000000	0.000000	1
153.700797	9.424132	0.000000	-0.006901	0.006191	0.000000	0.009271	1.549212	0.000000	0.000000	0.000000	0.000000	0.000000	1
156.809789	9.424132	0.000000	-0.009426	0.008261	0.000000	0.012534	1.080648	0.000000	0.000000	0.000000	0.000000	0.000000	1
159.918781	9.424132	0.000000	-0.006958	0.007299	0.000000	0.010085	0.609083	0.000000	0.000000	0.000000	0.000000	0.000000	1
4.469176	12.533124	0.000000	0.007019	0.013918	0.000000	0.015588	-2.001892	0.000000	0.000000	0.000000	0.000000	0.000000	1
7.578168	12.533124	0.000000	0.005151	0.005683	0.000000	0.007670	-0.424382	0.000000	0.000000	0.000000	0.000000	0.000000	1
10.687160	12.533124	0.000000	-0.005508	0.008881	0.000000	0.010450	0.392380	0.000000	0.000000	0.000000	0.000000	0.000000	1
13.796152	12.533124	0.000000	-0.006527	0.009275	0.000000	0.011342	-1.261730	0.000000	0.000000	0.000000	0.000000	0.000000	1
16.905145	12.533124	0.000000	0.000187	0.002556	0.000000	0.002563	-1.231781	0.000000	0.000000	0.000000	0.000000	0.000000	1
20.014137	12.533124	0.000000	0.000057	0.003209	0.000000	0.003210	0.673502	0.000000	0.000000	0.000000	0.000000	0.000000	1
23.123129	12.533124	0.000000	0.000002	0.004495	0.000000	0.004495	1.801749	0.000000	0.000000	0.000000	0.000000	0.000000	1
26.232121	12.533124	0.000000	-0.001517	0.008593	0.000000	0.008726	0.712162	0.000000	0.000000	0.000000	0.000000	0.000000	1
29.341113	12.533124	0.000000	-0.002164	0.007487	0.000000	0.007793	-0.170093	0.000000	0.000000	0.000000	0.000000	0.000000	1
32.450105	12.533124	0.000000	-0.001022	0.004728	0.000000	0.004837	0.437975	0.000000	0.000000	0.000000	0.000000	0.000000	1
35.559097	12.533124	0.000000	0.001875	0.004233	0.000000	0.004630	0.700337	0.000000	0.000000	0.000000	0.000000	0.000000	1
38.668089	12.533124	0.000000	-0.002878	0.010343	0.000000	0.010736	-0.257175	0.000000	0.000000	0.000000	0.000000	0.000000	1
41.777081	12.533124	0.000000	-0.002661	0.006964	0.000000	0.007455	-1.744198	0.000000	0.000000	0.000000	0.000000	0.000000	1
44.886073	12.533124	0.000000	-0.002950	0.001657	0.000000	0.003384	2.058542	0.000000	0.000000	0.000000	0.000000	0.000000	1
47.995066	12.533124	0.000000	-0.034298	0.015621	0.000000	0.037688	10.142610	0.000000	0.000000	0.000000	0.000000	0.000000	2
51.104058	12.533124	0.000000	-0.167912	0.060737	0.000000	0.178560	22.190342	0.000000	0.000000	0.000000	0.000000	0.000000	2
54.213050	12.533124	0.000000	-0.399900	0.108194	0.000000	0.414277	26.000023	0.000000	0.000000	0.000000	0.000000	0.000000	1
57.322042	12.533124	0.000000	-0.431588	0.180935	0.000000	0.467980	26.211509	0.000000	0.000000	0.000000	0.000000	0.000000	1
60.431034	12.533124	0.000000	-0.377429	0.175459	0.000000	0.416219	68.596427	0.000000	0.000000	0.000000	0.000000	0.000000	1
63.540026	12.533124	0.000000	-0.389228	0.402754	0.000000	0.560097	89.525645	0.000000	0.000000	0.000000	0.000000	0.000000	1
66.649018	12.533124	0.000000	-0.493780	0.372475	0.000000	0.618511	66.238499	0.000000	0.000000	0.000000	0.000000	0.000000	2
69.758010	12.533124	0.000000	-0.495444	0.438289	0.000000	0.661484	46.514068	0.000000	0.000000	0.000000	0.000000	0.000000	2
72.867002	12.533124	0.000000	-0.485012	0.545491	0.000000	0.729930	12.949543	0.000000	0.000000	0.000000	0.000000	0.000000	1
75.975994	12.533124	0.000000	-0.483932	0.611062	0.000000	0.779479	-88.609536	0.000000	0.000000	0.000000	0.000000	0.000000	1
79.084987	12.533124	0.000000	-0.266579	0.288613	0.000000	0.392889	-148.527534	0.000000	0.000000	0.000000	0.000000	0.000000	2
82.193979	12.533124	0.000000	-0.053147	0.049160	0.000000	0.072397	-72.433128	0.000000	0.000000	0.000000	0.000000	0.000000	1
85.302971	12.533124	0.000000	-0.037533	0.044967	0.000000	0.058573	-5.238109	0.000000	0.000000	0.000000	0.000000	0.000000	1
88.411963	12.533124	0.000000	-0.053660	0.060276	0.000000	0.080701	-0.800696	0.000000	0.000000	0.000000	0.000000	0.000000	1
91.520955	12.533124	0.000000	-0.006701	0.020518	0.000000	0.021584	-3.949802	0.000000	0.000000	0.000000	0.000000	0.000000	1
94.629947	12.533124	0.000000	-0.003926	0.013583	0.000000	0.014139	0.191329	0.000000	0.000000	0.000000	0.000000	0.000000	1
97.738939	12.533124	0.000000	0.015597	0.001585	0.000000	0.015677	0.398874	0.000000	0.000000	0.000000	0.000000	0.000000	1
100.847931	12.533124	0.000000	0.025963	0.003253	0.000000	0.026166	3.928667	0.000000	0.000000	0.000000	0.000000	0.000000	1
103.956923	12.533124	0.000000	-0.002610	0.034930	0.000000	0.035028	2.866102	0.000000	0.000000	0.000000	0.000000	0.000000	1
107.065915	12.533124	0.000000	-0.002701	0.041581	0.000000	0.041669	-3.035570	0.000000	0.000000	0.000000	0.000000	0.000000	1
110.174908	12.533124	0.000000	0.003977	0.026659	0.000000	0.026954	-4.621276	0.000000	0.000000	0.000000	0.000000	0.000000	1
113.283900	12.533124	0.000000	0.000207	0.008751	0.000000	0.008753	-2.784228	0.000000	0.000000	0.000000	0.000000	0.000000	1
116.392892	12.533124	0.000000	-0.003862	0.005102	0.000000	0.006399	-0.562824	0.000000	0.000000	0.000000	0.000000	0.000000	1
119.501884	12.533124	0.000000	-0.002801	0.006215	0.000000	0.006817	0.475865	0.000000	0.000000	0.000000	0.000000	0.000000	1
122.610876	12.533124	0.000000	-0.000114	0.007732	0.000000	0.007733	0.274687	0.000000	0.000000	0.000000	0.000000	0.000000	1
125.719868	12.533124	0.000000	0.000318	0.006360	0.000000	0.006368	1.108368	0.000000	0.000000	0.000000	0.000000	0.000000	1
128.828860	12.533124	0.000000	-0.006668	0.009312	0.000000	0.011453	3.656033	0.000000	0.000000	0.000000	0.000000	0.000000	1
131.937852	12.533124	0.000000	-0.019442	0.024791	0.000000	0.031505	3.343564	0.000000	0.000000	0.000000	0.000000	0.000000	1
135.046844	12.533124	0.000000	-0.017067	0.022437	0.000000	0.028190	-1.311770	0.000000	0.000000	0.000000	0.000000	0.000000	1
138.155836	12.533124	0.000000	-0.000911	0.004235	0.000000	0.004332	-2.295594	0.000000	0.000000	0.000000	0.000000	0.000000	1
141.264829	12.533124	0.000000	-0.002500	0.005040	0.000000	0.005626	0.570986	0.000000	0.000000	0.000000	0.000000	0.000000	1
144.373821	12.533124	0.000000	-0.008948	0.007237	0.000000	0.011508	0.793218	0.000000	0.000000	0.000000	0.000000	0.000000	1
147.482813	12.533124	0.000000	-0.009869	0.006389	0.000000	0.011757	0.133984	0.000000	0.000000	0.000000	0.000000	0.000000	1
150.591805	12.533124	0.000000	-0.004278	0.004778	0.000000	0.006413	0.448387	0.000000	0.000000	0.000000	0.000000	0.000000	1
153.700797	12.533124	0.000000	-0.008164	0.007816	0.000000	0.011303	0.034889	0.000000	0.000000	0.000000	0.000000	0.000000	1
156.809789	12.533124	0.000000	-0.009982	0.008028	0.000000	0.012810	-0.265357	0.000000	0.000000	0.000000	0.000000	0.000000	1
159.918781	12.533124	0.000000	-0.006693	0.006309	0.000000	0.009198	0.093913	0.000000	0.000000	0.000000	0.000000	0.000000	1
4.469176	15.642117	0.000000	0.006828	0.014555	0.000000	0.016077	-1.900069	0.000000	0.000000	0.000000	0.000000	0.000000	1
7.578168	15.642117	0.000000	0.000438	0.004563	0.000000	0.004584	-0.374349	0.000000	0.000000	0.000000	0.000000	0.000000	1
10.687160	15.642117	0.000000	-0.001214	0.008722	0.000000	0.008806	-0.085129	0.000000	0.000000	0.000000	0.000000	0.000000	1
13.796152	15.642117	0.000000	-0.002507	0.008438	0.000000	0.008803	-1.964938	0.000000	0.000000	0.000000	0.000000	0.000000	1
16.905145	15.642117	0.000000	0.001003	0.003427	0.000000	0.003571	-1.575890	0.000000	0.000000	0.000000	0.000000	0.000000	1
20.014137	15.642117	0.000000	0.000736	0.004154	0.000000	0.004219	-0.534641	0.000000	0.000000	0.000000	0.000000	0.000000	1
23.123129	15.642117	0.000000	-0.001091	0.004774	0.000000	0.004897	-0.240090	0.000000	0.000000	0.000000	0.000000	0.000000	1
26.232121	15.642117	0.000000	0.004055	0.007842	0.000000	0.008828	-0.576032	0.000000	0.000000	0.000000	0.000000	0.000000	1
29.341113	15.642117	0.000000	0.002840	0.007666	0.000000	0.008175	-1.417326	0.000000	0.000000	0.000000	0.000000	0.000000	1
32.450105	15.642117	0.000000	-0.000359	0.005423	0.000000	0.005435	0.032949	0.000000	0.000000	0.000000	0.000000	0.000000	1
35.559097	15.642117	0.000000	0.003221	0.013648	0.000000	0.014023	0.799093	0.000000	0.000000	0.000000	0.000000	0.000000	1
38.668089	15.642117	0.000000	0.002961	0.014897	0.000000	0.015189	-1.366070	0.000000	0.000000	0.000000	0.000000	0.000000	1
41.777081	15.642117	0.000000	0.000817	0.010064	0.000000	0.010097	-2.890846	0.000000	0.000000	0.000000	0.000000	0.000000	1
44.886073	15.642117	0.000000	-0.002186	0.001966	0.000000	0.002940	0.302079	0.000000	0.000000	0.000000	0.000000	0.000000	1
47.995066	15.642117	0.000000	-0.030359	0.033908	0.000000	0.045513	0.755404	0.000000	0.000000	0.000000	0.000000	0.000000	1
51.104058	15.642117	0.000000	-0.139296	0.052738	0.000000	0.148946	8.908576	0.000000	0.000000	0.000000	0.000000	0.000000	1
54.213050	15.642117	0.000000	-0.328397	0.177153	0.000000	0.373132	2.706437	0.000000	0.000000	0.000000	0.000000	0.000000	1
57.322042	15.642117	0.000000	-0.451830	0.129707	0.000000	0.470079	4.802600	0.000000	0.000000	0.000000	0.000000	0.000000	1
60.431034	15.642117	0.000000	-0.495279	0.226847	0.000000	0.544757	64.714231	0.000000	0.000000	0.000000	0.000000	0.000000	2
63.540026	15.642117	0.000000	-0.646444	0.438119	0.000000	0.780921	71.521761	0.000000	0.000000	0.000000	0.000000	0.000000	1
66.649018	15.642117	0.000000	-0.627195	0.550466	0.000000	0.834498	42.047066	0.000000	0.000000	0.000000	0.000000	0.000000	1
69.758010	15.642117	0.000000	-0.512342	0.795741	0.000000	0.946413	20.400357	0.000000	0.000000	0.000000	0.000000	0.000000	1
72.867002	15.642117	0.000000	-0.390962	0.871651	0.000000	0.955315	-32.416234	0.000000	0.000000	0.000000	0.000000	0.000000	1
75.975994	15.642117	0.000000	-0.331839	0.783612	0.000000	0.850978	-131.165610	0.000000	0.000000	0.000000	0.000000	0.000000	1
79.084987	15.642117	0.000000	-0.079285	0.158678	0.000000	0.177383	-133.593511	0.000000	0.000000	0.000000	0.000000	0.000000	2
82.193979	15.642117	0.000000	-0.065528	0.036294	0.000000	0.074907	-34.674776	0.000000	0.000000	0.000000	0.000000	0.000000	1
85.302971	15.642117	0.000000	-0.052466	0.052880	0.000000	0.074491	-4.285467	0.000000	0.000000	0.000000	0.000000	0.000000	1
88.411963	15.642117	0.000000	-0.052445	0.060844	0.000000	0.080328	-7.080211	0.000000	0.000000	0.000000	0.000000	0.000000	1
91.520955	15.642117	0.000000	-0.007915	0.027278	0.000000	0.028403	-6.847832	0.000000	0.000000	0.000000	0.000000	0.000000	1
94.629947	15.642117	0.000000	-0.004611	0.019062	0.000000	0.019612	-3.276038	0.000000	0.000000	0.000000	0.000000	0.000000	1
97.738939	15.642117	0.000000	0.011185	0.008200	0.000000	0.013868	-0.293904	0.000000	0.000000	0.000000	0.000000	0.000000	1
100.847931	15.642117	0.000000	0.022735	0.007627	0.000000	0.023980	3.855906	0.000000	0.000000	0.000000	0.000000	0.000000	1
103.956923	15.642117	0.000000	0.001081	0.019616	0.000000	0.019645	2.812297	0.000000	0.000000	0.000000	0.000000	0.000000	1
107.065915	15.642117	0.000000	0.000662	0.026267	0.000000	0.026275	-0.769390	0.000000	0.000000	0.000000	0.000000	0.000000	1
110.174908	15.642117	0.000000	0.005574	0.014822	0.000000	0.015836	-2.014955	0.000000	0.000000	0.000000	0.000000	0.000000	2
113.283900	15.642117	0.000000	0.000637	0.009449	0.000000	0.009471	-1.514119	0.000000	0.000000	0.000000	0.000000	0.000000	1
116.392892	15.642117	0.000000	-0.004157	0.005965	0.000000	0.007271	-0.888320	0.000000	0.000000	0.000000	0.000000	0.000000	1
119.501884	15.642117	0.000000	-0.003916	0.006758	0.000000	0.007811	-0.055342	0.000000	0.000000	0.000000	0.000000	0.000000	1