TITLE = "PIV Result  2767 "
VARIABLES = "X (mm)""Y (mm)""Z (mm)""U (m/s)""V (m/s)""W (m/s)""Speed (m/s)""Vorticity""U-std""V-std""W-std""Speed-std""Vorticity-std""Flag"
ZONE T="ZONE 2767 "
I= 51 , J= 16 , K= 1 , F=POINT
DT=(DOUBLE DOUBLE DOUBLE DOUBLE DOUBLE DOUBLE DOUBLE DOUBLE DOUBLE DOUBLE DOUBLE DOUBLE DOUBLE DOUBLE)
4.469176	3.206148	0.000000	0.002509	0.011175	0.000000	0.011454	1.477780	0.000000	0.000000	0.000000	0.000000	0.000000	2
7.578168	3.206148	0.000000	0.002098	0.015978	0.000000	0.016115	0.200806	0.000000	0.000000	0.000000	0.000000	0.000000	1
10.687160	3.206148	0.000000	0.002548	0.014968	0.000000	0.015184	-1.735257	0.000000	0.000000	0.000000	0.000000	0.000000	1
13.796152	3.206148	0.000000	0.001315	0.006941	0.000000	0.007064	-1.468943	0.000000	0.000000	0.000000	0.000000	0.000000	1
16.905145	3.206148	0.000000	0.001099	0.006387	0.000000	0.006481	-0.811618	0.000000	0.000000	0.000000	0.000000	0.000000	1
20.014137	3.206148	0.000000	0.003087	0.002537	0.000000	0.003995	-0.451028	0.000000	0.000000	0.000000	0.000000	0.000000	1
23.123129	3.206148	0.000000	0.004058	0.003263	0.000000	0.005207	1.707500	0.000000	0.000000	0.000000	0.000000	0.000000	1
26.232121	3.206148	0.000000	0.005551	0.012508	0.000000	0.013685	2.955503	0.000000	0.000000	0.000000	0.000000	0.000000	1
29.341113	3.206148	0.000000	0.010262	0.017098	0.000000	0.019942	1.800442	0.000000	0.000000	0.000000	0.000000	0.000000	1
32.450105	3.206148	0.000000	0.009679	0.016822	0.000000	0.019408	-2.044094	0.000000	0.000000	0.000000	0.000000	0.000000	1
35.559097	3.206148	0.000000	-0.001113	0.001549	0.000000	0.001907	-3.677352	0.000000	0.000000	0.000000	0.000000	0.000000	1
38.668089	3.206148	0.000000	-0.001502	0.000433	0.000000	0.001564	-1.893735	0.000000	0.000000	0.000000	0.000000	0.000000	1
41.777081	3.206148	0.000000	-0.000985	-0.000472	0.000000	0.001092	-1.719739	0.000000	0.000000	0.000000	0.000000	0.000000	1
44.886073	3.206148	0.000000	-0.001462	-0.000574	0.000000	0.001570	-1.455467	0.000000	0.000000	0.000000	0.000000	0.000000	1
47.995066	3.206148	0.000000	-0.001443	-0.000936	0.000000	0.001720	6.255399	0.000000	0.000000	0.000000	0.000000	0.000000	1
51.104058	3.206148	0.000000	0.003403	0.000436	0.000000	0.003431	22.357430	0.000000	0.000000	0.000000	0.000000	0.000000	1
54.213050	3.206148	0.000000	-0.043544	0.001712	0.000000	0.043577	34.026530	0.000000	0.000000	0.000000	0.000000	0.000000	2
57.322042	3.206148	0.000000	-0.111700	0.001898	0.000000	0.111716	31.875909	0.000000	0.000000	0.000000	0.000000	0.000000	2
60.431034	3.206148	0.000000	-0.084489	-0.004286	0.000000	0.084597	19.491192	0.000000	0.000000	0.000000	0.000000	0.000000	1
63.540026	3.206148	0.000000	-0.050492	-0.005732	0.000000	0.050816	22.110987	0.000000	0.000000	0.000000	0.000000	0.000000	1
66.649018	3.206148	0.000000	-0.071282	0.002522	0.000000	0.071327	39.905434	0.000000	0.000000	0.000000	0.000000	0.000000	2
69.758010	3.206148	0.000000	-0.152129	0.094175	0.000000	0.178920	47.050512	0.000000	0.000000	0.000000	0.000000	0.000000	2
72.867002	3.206148	0.000000	-0.236768	0.166877	0.000000	0.289667	40.313931	0.000000	0.000000	0.000000	0.000000	0.000000	2
75.975994	3.206148	0.000000	-0.242914	0.194462	0.000000	0.311164	82.970239	0.000000	0.000000	0.000000	0.000000	0.000000	1
79.084987	3.206148	0.000000	-0.246256	0.716819	0.000000	0.757939	126.881899	0.000000	0.000000	0.000000	0.000000	0.000000	2
82.193979	3.206148	0.000000	-0.141314	0.919927	0.000000	0.930718	97.427691	0.000000	0.000000	0.000000	0.000000	0.000000	2
85.302971	3.206148	0.000000	-0.050202	1.514928	0.000000	1.515759	52.588523	0.000000	0.000000	0.000000	0.000000	0.000000	1
88.411963	3.206148	0.000000	-0.009223	1.656269	0.000000	1.656295	-237.506379	0.000000	0.000000	0.000000	0.000000	0.000000	1
91.520955	3.206148	0.000000	0.012477	-0.026987	0.000000	0.029732	-255.004467	0.000000	0.000000	0.000000	0.000000	0.000000	2
94.629947	3.206148	0.000000	0.005856	0.000236	0.000000	0.005861	-1.546410	0.000000	0.000000	0.000000	0.000000	0.000000	2
97.738939	3.206148	0.000000	-0.002950	-0.000206	0.000000	0.002958	0.078774	0.000000	0.000000	0.000000	0.000000	0.000000	1
100.847931	3.206148	0.000000	0.003789	-0.001036	0.000000	0.003928	1.607848	0.000000	0.000000	0.000000	0.000000	0.000000	1
103.956923	3.206148	0.000000	0.003361	-0.000550	0.000000	0.003406	2.736101	0.000000	0.000000	0.000000	0.000000	0.000000	1
107.065915	3.206148	0.000000	-0.002259	-0.000296	0.000000	0.002279	2.534539	0.000000	0.000000	0.000000	0.000000	0.000000	1
110.174908	3.206148	0.000000	0.000221	-0.001956	0.000000	0.001969	3.058610	0.000000	0.000000	0.000000	0.000000	0.000000	1
113.283900	3.206148	0.000000	0.002870	-0.001365	0.000000	0.003179	4.220154	0.000000	0.000000	0.000000	0.000000	0.000000	1
116.392892	3.206148	0.000000	0.001157	0.000979	0.000000	0.001515	4.227269	0.000000	0.000000	0.000000	0.000000	0.000000	1
119.501884	3.206148	0.000000	0.004320	0.001321	0.000000	0.004517	3.369998	0.000000	0.000000	0.000000	0.000000	0.000000	1
122.610876	3.206148	0.000000	0.005665	-0.000084	0.000000	0.005666	2.258302	0.000000	0.000000	0.000000	0.000000	0.000000	1
125.719868	3.206148	0.000000	0.003243	0.000016	0.000000	0.003243	1.083089	0.000000	0.000000	0.000000	0.000000	0.000000	1
128.828860	3.206148	0.000000	-0.001815	0.000641	0.000000	0.001925	0.249144	0.000000	0.000000	0.000000	0.000000	0.000000	1
131.937852	3.206148	0.000000	-0.002999	0.000361	0.000000	0.003021	0.581532	0.000000	0.000000	0.000000	0.000000	0.000000	1
135.046844	3.206148	0.000000	-0.007746	0.012881	0.000000	0.015030	0.093585	0.000000	0.000000	0.000000	0.000000	0.000000	1
138.155836	3.206148	0.000000	-0.007638	0.008564	0.000000	0.011475	0.111095	0.000000	0.000000	0.000000	0.000000	0.000000	1
141.264829	3.206148	0.000000	-0.004061	0.009380	0.000000	0.010221	0.951149	0.000000	0.000000	0.000000	0.000000	0.000000	1
144.373821	3.206148	0.000000	-0.003038	0.007989	0.000000	0.008547	0.498445	0.000000	0.000000	0.000000	0.000000	0.000000	1
147.482813	3.206148	0.000000	-0.007033	0.010583	0.000000	0.012707	0.270247	0.000000	0.000000	0.000000	0.000000	0.000000	1
150.591805	3.206148	0.000000	-0.007282	0.012717	0.000000	0.014654	-0.204574	0.000000	0.000000	0.000000	0.000000	0.000000	1
153.700797	3.206148	0.000000	-0.010424	0.013566	0.000000	0.017108	-1.643869	0.000000	0.000000	0.000000	0.000000	0.000000	1
156.809789	3.206148	0.000000	-0.007843	0.008811	0.000000	0.011796	-2.368296	0.000000	0.000000	0.000000	0.000000	0.000000	1
159.918781	3.206148	0.000000	-0.006439	0.008151	0.000000	0.010388	-2.047532	0.000000	0.000000	0.000000	0.000000	0.000000	1
4.469176	6.315140	0.000000	0.005787	0.008200	0.000000	0.010037	1.999017	0.000000	0.000000	0.000000	0.000000	0.000000	1
7.578168	6.315140	0.000000	0.002806	0.016573	0.000000	0.016809	0.627867	0.000000	0.000000	0.000000	0.000000	0.000000	1
10.687160	6.315140	0.000000	0.003305	0.012357	0.000000	0.012792	-1.439449	0.000000	0.000000	0.000000	0.000000	0.000000	1
13.796152	6.315140	0.000000	0.000846	0.005785	0.000000	0.005847	-1.597421	0.000000	0.000000	0.000000	0.000000	0.000000	1
16.905145	6.315140	0.000000	0.002690	0.004081	0.000000	0.004888	-0.975664	0.000000	0.000000	0.000000	0.000000	0.000000	1
20.014137	6.315140	0.000000	0.003484	0.003207	0.000000	0.004736	-0.595870	0.000000	0.000000	0.000000	0.000000	0.000000	1
23.123129	6.315140	0.000000	0.002970	0.002896	0.000000	0.004148	0.633753	0.000000	0.000000	0.000000	0.000000	0.000000	1
26.232121	6.315140	0.000000	0.002940	0.010082	0.000000	0.010502	2.041879	0.000000	0.000000	0.000000	0.000000	0.000000	1
29.341113	6.315140	0.000000	0.007002	0.016245	0.000000	0.017690	1.785020	0.000000	0.000000	0.000000	0.000000	0.000000	1
32.450105	6.315140	0.000000	0.007007	0.016355	0.000000	0.017793	-1.172948	0.000000	0.000000	0.000000	0.000000	0.000000	1
35.559097	6.315140	0.000000	0.005092	0.003974	0.000000	0.006459	-3.420757	0.000000	0.000000	0.000000	0.000000	0.000000	1
38.668089	6.315140	0.000000	0.002093	0.000344	0.000000	0.002121	-2.719020	0.000000	0.000000	0.000000	0.000000	0.000000	1
41.777081	6.315140	0.000000	0.001800	-0.001375	0.000000	0.002265	-1.713868	0.000000	0.000000	0.000000	0.000000	0.000000	1
44.886073	6.315140	0.000000	0.007071	-0.002338	0.000000	0.007447	2.534586	0.000000	0.000000	0.000000	0.000000	0.000000	1
47.995066	6.315140	0.000000	-0.000300	0.001982	0.000000	0.002004	13.374676	0.000000	0.000000	0.000000	0.000000	0.000000	1
51.104058	6.315140	0.000000	-0.079896	0.001964	0.000000	0.079920	26.504886	0.000000	0.000000	0.000000	0.000000	0.000000	2
54.213050	6.315140	0.000000	-0.153438	0.002021	0.000000	0.153452	31.730761	0.000000	0.000000	0.000000	0.000000	0.000000	2
57.322042	6.315140	0.000000	-0.230391	0.001877	0.000000	0.230399	31.328531	0.000000	0.000000	0.000000	0.000000	0.000000	2
60.431034	6.315140	0.000000	-0.138911	0.002728	0.000000	0.138938	41.511853	0.000000	0.000000	0.000000	0.000000	0.000000	2
63.540026	6.315140	0.000000	-0.070444	0.004410	0.000000	0.070582	51.108742	0.000000	0.000000	0.000000	0.000000	0.000000	1
66.649018	6.315140	0.000000	-0.153671	0.094175	0.000000	0.180232	42.411294	0.000000	0.000000	0.000000	0.000000	0.000000	2
69.758010	6.315140	0.000000	-0.234212	0.133954	0.000000	0.269812	37.305327	0.000000	0.000000	0.000000	0.000000	0.000000	2
72.867002	6.315140	0.000000	-0.230621	0.274533	0.000000	0.358545	55.757698	0.000000	0.000000	0.000000	0.000000	0.000000	1
75.975994	6.315140	0.000000	-0.192319	0.515817	0.000000	0.550503	96.523607	0.000000	0.000000	0.000000	0.000000	0.000000	2
79.084987	6.315140	0.000000	-0.192182	0.917820	0.000000	0.937725	146.775723	0.000000	0.000000	0.000000	0.000000	0.000000	2
82.193979	6.315140	0.000000	-0.136351	1.531960	0.000000	1.538016	92.430491	0.000000	0.000000	0.000000	0.000000	0.000000	2
85.302971	6.315140	0.000000	-0.054296	1.391226	0.000000	1.392285	-1.674298	0.000000	0.000000	0.000000	0.000000	0.000000	1
88.411963	6.315140	0.000000	0.003551	1.459156	0.000000	1.459161	-226.461024	0.000000	0.000000	0.000000	0.000000	0.000000	1
91.520955	6.315140	0.000000	0.019373	0.007861	0.000000	0.020907	-219.929245	0.000000	0.000000	0.000000	0.000000	0.000000	2
94.629947	6.315140	0.000000	0.021403	-0.013934	0.000000	0.025539	0.129526	0.000000	0.000000	0.000000	0.000000	0.000000	1
97.738939	6.315140	0.000000	-0.000765	0.002023	0.000000	0.002163	4.247639	0.000000	0.000000	0.000000	0.000000	0.000000	1
100.847931	6.315140	0.000000	-0.003732	0.000714	0.000000	0.003800	2.131419	0.000000	0.000000	0.000000	0.000000	0.000000	1
103.956923	6.315140	0.000000	-0.007550	-0.001405	0.000000	0.007679	0.298854	0.000000	0.000000	0.000000	0.000000	0.000000	1
107.065915	6.315140	0.000000	-0.007309	-0.000392	0.000000	0.007320	0.491228	0.000000	0.000000	0.000000	0.000000	0.000000	1
110.174908	6.315140	0.000000	-0.007735	0.002554	0.000000	0.008146	0.824976	0.000000	0.000000	0.000000	0.000000	0.000000	1
113.283900	6.315140	0.000000	-0.014388	0.000494	0.000000	0.014396	1.593454	0.000000	0.000000	0.000000	0.000000	0.000000	1
116.392892	6.315140	0.000000	-0.010107	-0.001635	0.000000	0.010239	1.977405	0.000000	0.000000	0.000000	0.000000	0.000000	1
119.501884	6.315140	0.000000	-0.007740	-0.001468	0.000000	0.007878	1.786882	0.000000	0.000000	0.000000	0.000000	0.000000	1
122.610876	6.315140	0.000000	-0.000320	-0.000032	0.000000	0.000322	1.332358	0.000000	0.000000	0.000000	0.000000	0.000000	1
125.719868	6.315140	0.000000	-0.000302	0.000345	0.000000	0.000458	1.153736	0.000000	0.000000	0.000000	0.000000	0.000000	1
128.828860	6.315140	0.000000	-0.000341	0.001110	0.000000	0.001161	0.897577	0.000000	0.000000	0.000000	0.000000	0.000000	1
131.937852	6.315140	0.000000	-0.001795	0.003706	0.000000	0.004118	0.631915	0.000000	0.000000	0.000000	0.000000	0.000000	1
135.046844	6.315140	0.000000	-0.002540	0.005190	0.000000	0.005778	0.268429	0.000000	0.000000	0.000000	0.000000	0.000000	1
138.155836	6.315140	0.000000	-0.006946	0.008973	0.000000	0.011348	-0.000933	0.000000	0.000000	0.000000	0.000000	0.000000	1
141.264829	6.315140	0.000000	-0.009671	0.011050	0.000000	0.014685	0.136560	0.000000	0.000000	0.000000	0.000000	0.000000	1
144.373821	6.315140	0.000000	-0.005387	0.008498	0.000000	0.010062	0.329761	0.000000	0.000000	0.000000	0.000000	0.000000	1
147.482813	6.315140	0.000000	-0.005737	0.007034	0.000000	0.009077	0.604321	0.000000	0.000000	0.000000	0.000000	0.000000	1
150.591805	6.315140	0.000000	-0.007080	0.007577	0.000000	0.010370	-0.067273	0.000000	0.000000	0.000000	0.000000	0.000000	1
153.700797	6.315140	0.000000	-0.006218	0.007414	0.000000	0.009676	-1.563269	0.000000	0.000000	0.000000	0.000000	0.000000	1
156.809789	6.315140	0.000000	-0.002836	0.004662	0.000000	0.005456	-1.865678	0.000000	0.000000	0.000000	0.000000	0.000000	1
159.918781	6.315140	0.000000	-0.000457	0.003579	0.000000	0.003608	-1.356365	0.000000	0.000000	0.000000	0.000000	0.000000	1
4.469176	9.424132	0.000000	0.003677	0.005810	0.000000	0.006876	2.324581	0.000000	0.000000	0.000000	0.000000	0.000000	1
7.578168	9.424132	0.000000	0.001449	0.009640	0.000000	0.009749	0.994225	0.000000	0.000000	0.000000	0.000000	0.000000	1
10.687160	9.424132	0.000000	0.001819	0.008461	0.000000	0.008655	-0.806005	0.000000	0.000000	0.000000	0.000000	0.000000	1
13.796152	9.424132	0.000000	0.005525	0.006556	0.000000	0.008573	-1.089930	0.000000	0.000000	0.000000	0.000000	0.000000	1
16.905145	9.424132	0.000000	0.005020	0.005476	0.000000	0.007429	-0.630741	0.000000	0.000000	0.000000	0.000000	0.000000	1
20.014137	9.424132	0.000000	0.005981	0.006797	0.000000	0.009054	-0.314325	0.000000	0.000000	0.000000	0.000000	0.000000	1
23.123129	9.424132	0.000000	0.007723	0.009528	0.000000	0.012265	-0.294008	0.000000	0.000000	0.000000	0.000000	0.000000	1
26.232121	9.424132	0.000000	0.001216	0.004730	0.000000	0.004884	0.525498	0.000000	0.000000	0.000000	0.000000	0.000000	1
29.341113	9.424132	0.000000	0.003296	0.007809	0.000000	0.008477	0.561300	0.000000	0.000000	0.000000	0.000000	0.000000	1
32.450105	9.424132	0.000000	0.003328	0.007649	0.000000	0.008342	-0.643692	0.000000	0.000000	0.000000	0.000000	0.000000	1
35.559097	9.424132	0.000000	0.016881	0.017051	0.000000	0.023994	-2.481047	0.000000	0.000000	0.000000	0.000000	0.000000	1
38.668089	9.424132	0.000000	0.007266	0.009382	0.000000	0.011867	-2.859440	0.000000	0.000000	0.000000	0.000000	0.000000	1
41.777081	9.424132	0.000000	0.007626	0.006285	0.000000	0.009882	-0.765661	0.000000	0.000000	0.000000	0.000000	0.000000	1
44.886073	9.424132	0.000000	0.003805	0.004384	0.000000	0.005805	9.562271	0.000000	0.000000	0.000000	0.000000	0.000000	1
47.995066	9.424132	0.000000	-0.080809	0.002855	0.000000	0.080859	29.238557	0.000000	0.000000	0.000000	0.000000	0.000000	2
51.104058	9.424132	0.000000	-0.118224	0.052333	0.000000	0.129289	36.415010	0.000000	0.000000	0.000000	0.000000	0.000000	2
54.213050	9.424132	0.000000	-0.298012	0.082270	0.000000	0.309159	24.800100	0.000000	0.000000	0.000000	0.000000	0.000000	2
57.322042	9.424132	0.000000	-0.247182	0.074208	0.000000	0.258081	24.684734	0.000000	0.000000	0.000000	0.000000	0.000000	2
60.431034	9.424132	0.000000	-0.318559	0.106554	0.000000	0.335907	55.451465	0.000000	0.000000	0.000000	0.000000	0.000000	1
63.540026	9.424132	0.000000	-0.309079	0.247044	0.000000	0.395677	68.418551	0.000000	0.000000	0.000000	0.000000	0.000000	1
66.649018	9.424132	0.000000	-0.235246	0.272820	0.000000	0.360238	36.415867	0.000000	0.000000	0.000000	0.000000	0.000000	1
69.758010	9.424132	0.000000	-0.273527	0.234990	0.000000	0.360607	22.492677	0.000000	0.000000	0.000000	0.000000	0.000000	1
72.867002	9.424132	0.000000	-0.241543	0.264072	0.000000	0.357879	75.185133	0.000000	0.000000	0.000000	0.000000	0.000000	1
75.975994	9.424132	0.000000	-0.221495	0.648253	0.000000	0.685049	106.060261	0.000000	0.000000	0.000000	0.000000	0.000000	2
79.084987	9.424132	0.000000	-0.252909	0.859701	0.000000	0.896130	134.734903	0.000000	0.000000	0.000000	0.000000	0.000000	2
82.193979	9.424132	0.000000	-0.201531	1.489004	0.000000	1.502580	66.362621	0.000000	0.000000	0.000000	0.000000	0.000000	2
85.302971	9.424132	0.000000	-0.067977	1.268849	0.000000	1.270669	-79.531664	0.000000	0.000000	0.000000	0.000000	0.000000	2
88.411963	9.424132	0.000000	0.014263	0.784343	0.000000	0.784473	-179.879158	0.000000	0.000000	0.000000	0.000000	0.000000	2
91.520955	9.424132	0.000000	0.042760	0.004435	0.000000	0.042989	-121.993337	0.000000	0.000000	0.000000	0.000000	0.000000	1
94.629947	9.424132	0.000000	0.024238	0.018910	0.000000	0.030742	3.745715	0.000000	0.000000	0.000000	0.000000	0.000000	1
97.738939	9.424132	0.000000	-0.027004	0.035543	0.000000	0.044638	4.102653	0.000000	0.000000	0.000000	0.000000	0.000000	1
100.847931	9.424132	0.000000	-0.026782	0.036236	0.000000	0.045060	-2.491335	0.000000	0.000000	0.000000	0.000000	0.000000	1
103.956923	9.424132	0.000000	-0.000445	0.006753	0.000000	0.006768	-3.141770	0.000000	0.000000	0.000000	0.000000	0.000000	1
107.065915	9.424132	0.000000	-0.002201	0.007016	0.000000	0.007353	0.428306	0.000000	0.000000	0.000000	0.000000	0.000000	1
110.174908	9.424132	0.000000	-0.004603	0.003946	0.000000	0.006063	-0.254118	0.000000	0.000000	0.000000	0.000000	0.000000	1
113.283900	9.424132	0.000000	-0.013981	0.000391	0.000000	0.013987	-0.997587	0.000000	0.000000	0.000000	0.000000	0.000000	1
116.392892	9.424132	0.000000	-0.010311	-0.000974	0.000000	0.010357	-0.577599	0.000000	0.000000	0.000000	0.000000	0.000000	1
119.501884	9.424132	0.000000	-0.007452	-0.000749	0.000000	0.007489	-0.075221	0.000000	0.000000	0.000000	0.000000	0.000000	1
122.610876	9.424132	0.000000	-0.000085	0.000565	0.000000	0.000571	0.505308	0.000000	0.000000	0.000000	0.000000	0.000000	1
125.719868	9.424132	0.000000	-0.001563	0.001990	0.000000	0.002531	1.801184	0.000000	0.000000	0.000000	0.000000	0.000000	1
128.828860	9.424132	0.000000	-0.005973	0.006730	0.000000	0.008999	1.884417	0.000000	0.000000	0.000000	0.000000	0.000000	1
131.937852	9.424132	0.000000	-0.002255	0.004869	0.000000	0.005366	0.505576	0.000000	0.000000	0.000000	0.000000	0.000000	1
135.046844	9.424132	0.000000	-0.002177	0.004945	0.000000	0.005403	0.626106	0.000000	0.000000	0.000000	0.000000	0.000000	1
138.155836	9.424132	0.000000	-0.004481	0.007845	0.000000	0.009034	0.250123	0.000000	0.000000	0.000000	0.000000	0.000000	1
141.264829	9.424132	0.000000	-0.006336	0.006309	0.000000	0.008941	-0.444607	0.000000	0.000000	0.000000	0.000000	0.000000	1
144.373821	9.424132	0.000000	-0.007252	0.007159	0.000000	0.010191	0.154257	0.000000	0.000000	0.000000	0.000000	0.000000	1
147.482813	9.424132	0.000000	-0.008820	0.008851	0.000000	0.012495	0.480688	0.000000	0.000000	0.000000	0.000000	0.000000	1
150.591805	9.424132	0.000000	-0.009300	0.009499	0.000000	0.013294	-0.562467	0.000000	0.000000	0.000000	0.000000	0.000000	1
153.700797	9.424132	0.000000	-0.001735	0.006300	0.000000	0.006535	-1.240628	0.000000	0.000000	0.000000	0.000000	0.000000	1
156.809789	9.424132	0.000000	0.000634	0.004190	0.000000	0.004237	0.507878	0.000000	0.000000	0.000000	0.000000	0.000000	1
159.918781	9.424132	0.000000	0.000700	0.005764	0.000000	0.005806	2.016255	0.000000	0.000000	0.000000	0.000000	0.000000	1
4.469176	12.533124	0.000000	0.000478	0.003346	0.000000	0.003380	1.895865	0.000000	0.000000	0.000000	0.000000	0.000000	1
7.578168	12.533124	0.000000	0.001035	0.009141	0.000000	0.009199	1.004175	0.000000	0.000000	0.000000	0.000000	0.000000	1
10.687160	12.533124	0.000000	0.002371	0.008830	0.000000	0.009142	-0.338999	0.000000	0.000000	0.000000	0.000000	0.000000	1
13.796152	12.533124	0.000000	0.005514	0.007079	0.000000	0.008973	-0.495311	0.000000	0.000000	0.000000	0.000000	0.000000	1
16.905145	12.533124	0.000000	0.005482	0.007160	0.000000	0.009017	0.169721	0.000000	0.000000	0.000000	0.000000	0.000000	1
20.014137	12.533124	0.000000	0.008542	0.008795	0.000000	0.012261	0.344239	0.000000	0.000000	0.000000	0.000000	0.000000	1
23.123129	12.533124	0.000000	0.005277	0.007637	0.000000	0.009283	-0.150169	0.000000	0.000000	0.000000	0.000000	0.000000	1
26.232121	12.533124	0.000000	-0.000555	0.004918	0.000000	0.004949	-0.153218	0.000000	0.000000	0.000000	0.000000	0.000000	1
29.341113	12.533124	0.000000	0.006074	0.005183	0.000000	0.007985	0.272622	0.000000	0.000000	0.000000	0.000000	0.000000	1
32.450105	12.533124	0.000000	0.014311	0.008719	0.000000	0.016758	1.056385	0.000000	0.000000	0.000000	0.000000	0.000000	1
35.559097	12.533124	0.000000	0.025913	0.017461	0.000000	0.031247	0.409686	0.000000	0.000000	0.000000	0.000000	0.000000	1
38.668089	12.533124	0.000000	0.009678	0.016087	0.000000	0.018774	1.924660	0.000000	0.000000	0.000000	0.000000	0.000000	1
41.777081	12.533124	0.000000	0.007433	0.014847	0.000000	0.016604	12.910202	0.000000	0.000000	0.000000	0.000000	0.000000	1
44.886073	12.533124	0.000000	-0.008827	0.012676	0.000000	0.015447	34.680648	0.000000	0.000000	0.000000	0.000000	0.000000	1
47.995066	12.533124	0.000000	-0.141907	0.088414	0.000000	0.167196	49.683703	0.000000	0.000000	0.000000	0.000000	0.000000	2
51.104058	12.533124	0.000000	-0.259803	0.160679	0.000000	0.305476	38.343110	0.000000	0.000000	0.000000	0.000000	0.000000	1
54.213050	12.533124	0.000000	-0.298372	0.188905	0.000000	0.353144	20.995453	0.000000	0.000000	0.000000	0.000000	0.000000	1
57.322042	12.533124	0.000000	-0.283909	0.210552	0.000000	0.353464	27.391358	0.000000	0.000000	0.000000	0.000000	0.000000	1
60.431034	12.533124	0.000000	-0.363901	0.276629	0.000000	0.457108	38.438058	0.000000	0.000000	0.000000	0.000000	0.000000	2
63.540026	12.533124	0.000000	-0.466191	0.342291	0.000000	0.578357	29.910589	0.000000	0.000000	0.000000	0.000000	0.000000	1
66.649018	12.533124	0.000000	-0.373718	0.317827	0.000000	0.490591	20.538259	0.000000	0.000000	0.000000	0.000000	0.000000	1
69.758010	12.533124	0.000000	-0.292740	0.248222	0.000000	0.383811	37.493948	0.000000	0.000000	0.000000	0.000000	0.000000	1
72.867002	12.533124	0.000000	-0.344887	0.263035	0.000000	0.433744	76.867962	0.000000	0.000000	0.000000	0.000000	0.000000	1
75.975994	12.533124	0.000000	-0.350781	0.464317	0.000000	0.581925	60.322203	0.000000	0.000000	0.000000	0.000000	0.000000	2
79.084987	12.533124	0.000000	-0.295755	0.531657	0.000000	0.608383	48.577302	0.000000	0.000000	0.000000	0.000000	0.000000	2
82.193979	12.533124	0.000000	-0.215145	0.673398	0.000000	0.706932	9.219408	0.000000	0.000000	0.000000	0.000000	0.000000	2
85.302971	12.533124	0.000000	-0.080463	0.603200	0.000000	0.608543	-96.009353	0.000000	0.000000	0.000000	0.000000	0.000000	2
88.411963	12.533124	0.000000	0.008319	0.051052	0.000000	0.051725	-99.494319	0.000000	0.000000	0.000000	0.000000	0.000000	2
91.520955	12.533124	0.000000	0.019865	0.025300	0.000000	0.032167	-29.039281	0.000000	0.000000	0.000000	0.000000	0.000000	1
94.629947	12.533124	0.000000	0.023217	0.028357	0.000000	0.036649	5.390888	0.000000	0.000000	0.000000	0.000000	0.000000	1
97.738939	12.533124	0.000000	-0.024670	0.042301	0.000000	0.048969	1.520815	0.000000	0.000000	0.000000	0.000000	0.000000	1
100.847931	12.533124	0.000000	-0.001541	0.037294	0.000000	0.037326	-2.460282	0.000000	0.000000	0.000000	0.000000	0.000000	1
103.956923	12.533124	0.000000	0.007304	0.036676	0.000000	0.037396	0.204625	0.000000	0.000000	0.000000	0.000000	0.000000	1
107.065915	12.533124	0.000000	-0.016316	0.041589	0.000000	0.044675	0.971847	0.000000	0.000000	0.000000	0.000000	0.000000	1
110.174908	12.533124	0.000000	-0.023926	0.029632	0.000000	0.038086	-2.942650	0.000000	0.000000	0.000000	0.000000	0.000000	1
113.283900	12.533124	0.000000	-0.010942	0.009690	0.000000	0.014616	-2.739301	0.000000	0.000000	0.000000	0.000000	0.000000	1
116.392892	12.533124	0.000000	-0.010556	0.009101	0.000000	0.013938	-0.817709	0.000000	0.000000	0.000000	0.000000	0.000000	1
119.501884	12.533124	0.000000	-0.004686	0.005167	0.000000	0.006976	-0.260126	0.000000	0.000000	0.000000	0.000000	0.000000	1
122.610876	12.533124	0.000000	-0.003856	0.004672	0.000000	0.006058	0.785675	0.000000	0.000000	0.000000	0.000000	0.000000	1
125.719868	12.533124	0.000000	-0.003283	0.003444	0.000000	0.004758	1.652889	0.000000	0.000000	0.000000	0.000000	0.000000	1
128.828860	12.533124	0.000000	-0.014169	0.012671	0.000000	0.019009	1.339405	0.000000	0.000000	0.000000	0.000000	0.000000	1
131.937852	12.533124	0.000000	0.000951	0.013303	0.000000	0.013337	0.401496	0.000000	0.000000	0.000000	0.000000	0.000000	1
135.046844	12.533124	0.000000	-0.006796	0.012145	0.000000	0.013917	0.396630	0.000000	0.000000	0.000000	0.000000	0.000000	1
138.155836	12.533124	0.000000	-0.008353	0.010485	0.000000	0.013405	-0.217127	0.000000	0.000000	0.000000	0.000000	0.000000	1
141.264829	12.533124	0.000000	-0.006615	0.005765	0.000000	0.008775	-0.916562	0.000000	0.000000	0.000000	0.000000	0.000000	1
144.373821	12.533124	0.000000	-0.005891	0.005474	0.000000	0.008042	-0.252595	0.000000	0.000000	0.000000	0.000000	0.000000	1
147.482813	12.533124	0.000000	-0.007976	0.008342	0.000000	0.011542	-0.355823	0.000000	0.000000	0.000000	0.000000	0.000000	1
150.591805	12.533124	0.000000	-0.007562	0.008207	0.000000	0.011159	-1.870939	0.000000	0.000000	0.000000	0.000000	0.000000	1
153.700797	12.533124	0.000000	-0.000960	0.001128	0.000000	0.001481	-1.295607	0.000000	0.000000	0.000000	0.000000	0.000000	1
156.809789	12.533124	0.000000	-0.001991	0.001762	0.000000	0.002659	2.062976	0.000000	0.000000	0.000000	0.000000	0.000000	1
159.918781	12.533124	0.000000	-0.014193	0.011880	0.000000	0.018509	4.071405	0.000000	0.000000	0.000000	0.000000	0.000000	1
4.469176	15.642117	0.000000	-0.001319	0.003797	0.000000	0.004019	0.375761	0.000000	0.000000	0.000000	0.000000	0.000000	1
7.578168	15.642117	0.000000	-0.001147	0.004363	0.000000	0.004511	0.497602	0.000000	0.000000	0.000000	0.000000	0.000000	1
10.687160	15.642117	0.000000	0.005671	0.008819	0.000000	0.010485	0.235430	0.000000	0.000000	0.000000	0.000000	0.000000	1
13.796152	15.642117	0.000000	0.005081	0.007803	0.000000	0.009311	-0.500991	0.000000	0.000000	0.000000	0.000000	0.000000	1
16.905145	15.642117	0.000000	0.002212	0.002981	0.000000	0.003712	0.259075	0.000000	0.000000	0.000000	0.000000	0.000000	1
20.014137	15.642117	0.000000	0.009261	0.005570	0.000000	0.010806	0.889936	0.000000	0.000000	0.000000	0.000000	0.000000	1
23.123129	15.642117	0.000000	0.003053	0.005615	0.000000	0.006391	-0.138310	0.000000	0.000000	0.000000	0.000000	0.000000	1
26.232121	15.642117	0.000000	0.000188	0.004568	0.000000	0.004572	-0.772650	0.000000	0.000000	0.000000	0.000000	0.000000	1
29.341113	15.642117	0.000000	0.002195	0.000604	0.000000	0.002277	0.309906	0.000000	0.000000	0.000000	0.000000	0.000000	1
32.450105	15.642117	0.000000	0.012863	0.007132	0.000000	0.014708	2.581996	0.000000	0.000000	0.000000	0.000000	0.000000	1
35.559097	15.642117	0.000000	0.015264	0.009434	0.000000	0.017944	6.301130	0.000000	0.000000	0.000000	0.000000	0.000000	1
38.668089	15.642117	0.000000	0.008288	0.008176	0.000000	0.011642	28.384890	0.000000	0.000000	0.000000	0.000000	0.000000	1
41.777081	15.642117	0.000000	-0.023585	0.042514	0.000000	0.048618	57.778301	0.000000	0.000000	0.000000	0.000000	0.000000	1
44.886073	15.642117	0.000000	-0.169525	0.106370	0.000000	0.200133	60.562921	0.000000	0.000000	0.000000	0.000000	0.000000	2
47.995066	15.642117	0.000000	-0.294598	0.169727	0.000000	0.339993	45.511570	0.000000	0.000000	0.000000	0.000000	0.000000	1
51.104058	15.642117	0.000000	-0.307395	0.208069	0.000000	0.371193	26.078174	0.000000	0.000000	0.000000	0.000000	0.000000	1
54.213050	15.642117	0.000000	-0.336037	0.212845	0.000000	0.397774	15.678038	0.000000	0.000000	0.000000	0.000000	0.000000	1
57.322042	15.642117	0.000000	-0.364561	0.226046	0.000000	0.428954	28.655010	0.000000	0.000000	0.000000	0.000000	0.000000	1
60.431034	15.642117	0.000000	-0.408582	0.331584	0.000000	0.526201	22.378363	0.000000	0.000000	0.000000	0.000000	0.000000	1
63.540026	15.642117	0.000000	-0.418041	0.339375	0.000000	0.538455	7.486137	0.000000	0.000000	0.000000	0.000000	0.000000	1
66.649018	15.642117	0.000000	-0.404938	0.349219	0.000000	0.534723	21.502708	0.000000	0.000000	0.000000	0.000000	0.000000	1
69.758010	15.642117	0.000000	-0.454042	0.421535	0.000000	0.619553	42.655300	0.000000	0.000000	0.000000	0.000000	0.000000	1
72.867002	15.642117	0.000000	-0.529103	0.581821	0.000000	0.786426	36.628333	0.000000	0.000000	0.000000	0.000000	0.000000	1
75.975994	15.642117	0.000000	-0.360972	0.592831	0.000000	0.694081	-13.580289	0.000000	0.000000	0.000000	0.000000	0.000000	2
79.084987	15.642117	0.000000	-0.283576	0.352100	0.000000	0.452094	-42.328017	0.000000	0.000000	0.000000	0.000000	0.000000	1
82.193979	15.642117	0.000000	-0.190995	0.351858	0.000000	0.400354	-61.083269	0.000000	0.000000	0.000000	0.000000	0.000000	1
85.302971	15.642117	0.000000	-0.013911	0.073642	0.000000	0.074945	-72.800435	0.000000	0.000000	0.000000	0.000000	0.000000	2
88.411963	15.642117	0.000000	0.002925	0.020597	0.000000	0.020803	-30.795966	0.000000	0.000000	0.000000	0.000000	0.000000	1
91.520955	15.642117	0.000000	0.007769	0.015631	0.000000	0.017456	2.675770	0.000000	0.000000	0.000000	0.000000	0.000000	1
94.629947	15.642117	0.000000	0.027988	0.031584	0.000000	0.042200	6.150474	0.000000	0.000000	0.000000	0.000000	0.000000	1
97.738939	15.642117	0.000000	-0.029359	0.054759	0.000000	0.062133	1.756048	0.000000	0.000000	0.000000	0.000000	0.000000	1
100.847931	15.642117	0.000000	-0.016301	0.043732	0.000000	0.046671	0.091477	0.000000	0.000000	0.000000	0.000000	0.000000	1
103.956923	15.642117	0.000000	-0.010634	0.042026	0.000000	0.043351	1.162552	0.000000	0.000000	0.000000	0.000000	0.000000	1
107.065915	15.642117	0.000000	-0.017790	0.043966	0.000000	0.047429	-3.966168	0.000000	0.000000	0.000000	0.000000	0.000000	1
110.174908	15.642117	0.000000	-0.015119	0.031209	0.000000	0.034678	-7.153538	0.000000	0.000000	0.000000	0.000000	0.000000	1
113.283900	15.642117	0.000000	-0.007870	0.010689	0.000000	0.013273	-5.607227	0.000000	0.000000	0.000000	0.000000	0.000000	1
116.392892	15.642117	0.000000	-0.011073	0.010005	0.000000	0.014923	-3.673116	0.000000	0.000000	0.000000	0.000000	0.000000	1
119.501884	15.642117	0.000000	-0.005211	0.007365	0.000000	0.009022	-0.687156	0.000000	0.000000	0.000000	0.000000	0.000000	1
122.610876	15.642117	0.000000	-0.005287	0.009371	0.000000	0.010760	2.103481	0.000000	0.000000	0.000000	0.000000	0.000000	1