TITLE = "PIV Result  463 "
VARIABLES = "X (mm)""Y (mm)""Z (mm)""U (m/s)""V (m/s)""W (m/s)""Speed (m/s)""Vorticity""U-std""V-std""W-std""Speed-std""Vorticity-std""Flag"
ZONE T="ZONE 463 "
I= 51 , J= 16 , K= 1 , F=POINT
DT=(DOUBLE DOUBLE DOUBLE DOUBLE DOUBLE DOUBLE DOUBLE DOUBLE DOUBLE DOUBLE DOUBLE DOUBLE DOUBLE DOUBLE)
4.469176	3.206148	0.000000	0.002198	0.009730	0.000000	0.009975	-1.498979	0.000000	0.000000	0.000000	0.000000	0.000000	1
7.578168	3.206148	0.000000	-0.000568	0.003084	0.000000	0.003136	-1.088309	0.000000	0.000000	0.000000	0.000000	0.000000	1
10.687160	3.206148	0.000000	-0.001095	0.001037	0.000000	0.001508	-0.303806	0.000000	0.000000	0.000000	0.000000	0.000000	1
13.796152	3.206148	0.000000	0.000043	0.000542	0.000000	0.000544	0.364121	0.000000	0.000000	0.000000	0.000000	0.000000	1
16.905145	3.206148	0.000000	0.003101	0.002848	0.000000	0.004210	0.744970	0.000000	0.000000	0.000000	0.000000	0.000000	1
20.014137	3.206148	0.000000	0.004512	0.004679	0.000000	0.006500	0.526290	0.000000	0.000000	0.000000	0.000000	0.000000	1
23.123129	3.206148	0.000000	-0.001071	0.003762	0.000000	0.003912	-0.043148	0.000000	0.000000	0.000000	0.000000	0.000000	1
26.232121	3.206148	0.000000	0.000557	0.006586	0.000000	0.006610	-1.021829	0.000000	0.000000	0.000000	0.000000	0.000000	1
29.341113	3.206148	0.000000	0.002255	0.004339	0.000000	0.004890	-1.078085	0.000000	0.000000	0.000000	0.000000	0.000000	1
32.450105	3.206148	0.000000	0.002698	0.003287	0.000000	0.004252	-0.863663	0.000000	0.000000	0.000000	0.000000	0.000000	1
35.559097	3.206148	0.000000	0.002867	0.000791	0.000000	0.002974	-2.775403	0.000000	0.000000	0.000000	0.000000	0.000000	1
38.668089	3.206148	0.000000	0.002231	0.000278	0.000000	0.002248	-4.791439	0.000000	0.000000	0.000000	0.000000	0.000000	1
41.777081	3.206148	0.000000	-0.000739	0.000195	0.000000	0.000764	-4.434412	0.000000	0.000000	0.000000	0.000000	0.000000	1
44.886073	3.206148	0.000000	0.001544	-0.000176	0.000000	0.001554	-3.086521	0.000000	0.000000	0.000000	0.000000	0.000000	1
47.995066	3.206148	0.000000	0.004516	-0.001039	0.000000	0.004634	-2.295726	0.000000	0.000000	0.000000	0.000000	0.000000	1
51.104058	3.206148	0.000000	0.002836	-0.000035	0.000000	0.002837	-3.097061	0.000000	0.000000	0.000000	0.000000	0.000000	1
54.213050	3.206148	0.000000	0.000973	0.000692	0.000000	0.001194	-3.480016	0.000000	0.000000	0.000000	0.000000	0.000000	1
57.322042	3.206148	0.000000	0.004887	-0.000774	0.000000	0.004948	-2.302515	0.000000	0.000000	0.000000	0.000000	0.000000	1
60.431034	3.206148	0.000000	0.003271	-0.001229	0.000000	0.003494	-1.461666	0.000000	0.000000	0.000000	0.000000	0.000000	2
63.540026	3.206148	0.000000	0.002463	-0.000852	0.000000	0.002606	0.548759	0.000000	0.000000	0.000000	0.000000	0.000000	2
66.649018	3.206148	0.000000	0.004281	0.000491	0.000000	0.004309	3.829374	0.000000	0.000000	0.000000	0.000000	0.000000	1
69.758010	3.206148	0.000000	0.006467	-0.000379	0.000000	0.006478	5.372301	0.000000	0.000000	0.000000	0.000000	0.000000	1
72.867002	3.206148	0.000000	0.005455	-0.019101	0.000000	0.019865	5.850998	0.000000	0.000000	0.000000	0.000000	0.000000	2
75.975994	3.206148	0.000000	-0.008551	-0.017685	0.000000	0.019644	7.165959	0.000000	0.000000	0.000000	0.000000	0.000000	2
79.084987	3.206148	0.000000	0.026991	-0.013777	0.000000	0.030304	7.809155	0.000000	0.000000	0.000000	0.000000	0.000000	2
82.193979	3.206148	0.000000	0.061820	0.013188	0.000000	0.063211	20.240535	0.000000	0.000000	0.000000	0.000000	0.000000	2
85.302971	3.206148	0.000000	0.153550	0.110560	0.000000	0.189212	89.395931	0.000000	0.000000	0.000000	0.000000	0.000000	2
88.411963	3.206148	0.000000	0.288583	0.595667	0.000000	0.661890	130.978824	0.000000	0.000000	0.000000	0.000000	0.000000	2
91.520955	3.206148	0.000000	0.301816	0.774545	0.000000	0.831272	37.122531	0.000000	0.000000	0.000000	0.000000	0.000000	2
94.629947	3.206148	0.000000	0.188881	0.720335	0.000000	0.744687	-114.257971	0.000000	0.000000	0.000000	0.000000	0.000000	1
97.738939	3.206148	0.000000	0.194490	0.262013	0.000000	0.326309	-113.872807	0.000000	0.000000	0.000000	0.000000	0.000000	2
100.847931	3.206148	0.000000	0.096224	0.131567	0.000000	0.163000	-59.742777	0.000000	0.000000	0.000000	0.000000	0.000000	2
103.956923	3.206148	0.000000	-0.004310	-0.000801	0.000000	0.004384	-38.965058	0.000000	0.000000	0.000000	0.000000	0.000000	1
107.065915	3.206148	0.000000	-0.001211	-0.000534	0.000000	0.001324	-0.068476	0.000000	0.000000	0.000000	0.000000	0.000000	1
110.174908	3.206148	0.000000	-0.002384	-0.000567	0.000000	0.002450	0.655297	0.000000	0.000000	0.000000	0.000000	0.000000	1
113.283900	3.206148	0.000000	-0.001723	-0.000534	0.000000	0.001804	2.322254	0.000000	0.000000	0.000000	0.000000	0.000000	1
116.392892	3.206148	0.000000	0.002207	-0.001106	0.000000	0.002469	1.488383	0.000000	0.000000	0.000000	0.000000	0.000000	1
119.501884	3.206148	0.000000	0.000675	-0.000646	0.000000	0.000934	0.389793	0.000000	0.000000	0.000000	0.000000	0.000000	1
122.610876	3.206148	0.000000	0.001167	0.000226	0.000000	0.001189	0.584061	0.000000	0.000000	0.000000	0.000000	0.000000	1
125.719868	3.206148	0.000000	0.000484	0.000202	0.000000	0.000525	0.607542	0.000000	0.000000	0.000000	0.000000	0.000000	1
128.828860	3.206148	0.000000	0.000939	-0.000347	0.000000	0.001001	0.987270	0.000000	0.000000	0.000000	0.000000	0.000000	1
131.937852	3.206148	0.000000	0.000840	-0.000839	0.000000	0.001188	2.056193	0.000000	0.000000	0.000000	0.000000	0.000000	1
135.046844	3.206148	0.000000	0.002032	0.005476	0.000000	0.005841	1.708684	0.000000	0.000000	0.000000	0.000000	0.000000	1
138.155836	3.206148	0.000000	0.002398	0.006794	0.000000	0.007205	1.441906	0.000000	0.000000	0.000000	0.000000	0.000000	1
141.264829	3.206148	0.000000	-0.001027	0.007128	0.000000	0.007202	1.278175	0.000000	0.000000	0.000000	0.000000	0.000000	1
144.373821	3.206148	0.000000	-0.009283	0.012019	0.000000	0.015187	-0.782494	0.000000	0.000000	0.000000	0.000000	0.000000	1
147.482813	3.206148	0.000000	-0.009199	0.011968	0.000000	0.015095	-0.733030	0.000000	0.000000	0.000000	0.000000	0.000000	1
150.591805	3.206148	0.000000	-0.001359	0.014612	0.000000	0.014675	1.327223	0.000000	0.000000	0.000000	0.000000	0.000000	1
153.700797	3.206148	0.000000	-0.001372	0.014512	0.000000	0.014577	0.550994	0.000000	0.000000	0.000000	0.000000	0.000000	1
156.809789	3.206148	0.000000	-0.005093	0.004885	0.000000	0.007057	-0.815831	0.000000	0.000000	0.000000	0.000000	0.000000	1
159.918781	3.206148	0.000000	-0.005634	0.004511	0.000000	0.007217	-0.780727	0.000000	0.000000	0.000000	0.000000	0.000000	1
4.469176	6.315140	0.000000	0.001562	0.007587	0.000000	0.007747	-1.185020	0.000000	0.000000	0.000000	0.000000	0.000000	1
7.578168	6.315140	0.000000	-0.000500	0.004346	0.000000	0.004374	-1.054444	0.000000	0.000000	0.000000	0.000000	0.000000	1
10.687160	6.315140	0.000000	-0.000484	0.002857	0.000000	0.002898	-0.462020	0.000000	0.000000	0.000000	0.000000	0.000000	1
13.796152	6.315140	0.000000	0.000864	0.005218	0.000000	0.005289	0.148740	0.000000	0.000000	0.000000	0.000000	0.000000	1
16.905145	6.315140	0.000000	0.000330	0.005056	0.000000	0.005066	0.017554	0.000000	0.000000	0.000000	0.000000	0.000000	1
20.014137	6.315140	0.000000	0.000392	0.001506	0.000000	0.001556	-0.002401	0.000000	0.000000	0.000000	0.000000	0.000000	1
23.123129	6.315140	0.000000	0.002457	0.003204	0.000000	0.004038	0.405296	0.000000	0.000000	0.000000	0.000000	0.000000	1
26.232121	6.315140	0.000000	0.005426	0.006868	0.000000	0.008753	-0.197981	0.000000	0.000000	0.000000	0.000000	0.000000	1
29.341113	6.315140	0.000000	0.002536	0.003467	0.000000	0.004296	-0.527831	0.000000	0.000000	0.000000	0.000000	0.000000	1
32.450105	6.315140	0.000000	0.004704	0.004197	0.000000	0.006304	-0.310941	0.000000	0.000000	0.000000	0.000000	0.000000	1
35.559097	6.315140	0.000000	0.007194	0.004895	0.000000	0.008702	-1.301558	0.000000	0.000000	0.000000	0.000000	0.000000	1
38.668089	6.315140	0.000000	0.019010	0.000132	0.000000	0.019011	-2.147770	0.000000	0.000000	0.000000	0.000000	0.000000	2
41.777081	6.315140	0.000000	0.013544	-0.001926	0.000000	0.013680	-1.358439	0.000000	0.000000	0.000000	0.000000	0.000000	2
44.886073	6.315140	0.000000	0.009716	-0.001044	0.000000	0.009772	1.866084	0.000000	0.000000	0.000000	0.000000	0.000000	1
47.995066	6.315140	0.000000	0.012483	-0.000484	0.000000	0.012492	5.814391	0.000000	0.000000	0.000000	0.000000	0.000000	1
51.104058	6.315140	0.000000	0.012020	0.003553	0.000000	0.012534	5.489487	0.000000	0.000000	0.000000	0.000000	0.000000	1
54.213050	6.315140	0.000000	0.011077	-0.004292	0.000000	0.011880	1.418715	0.000000	0.000000	0.000000	0.000000	0.000000	1
57.322042	6.315140	0.000000	0.008019	-0.006462	0.000000	0.010298	-1.580000	0.000000	0.000000	0.000000	0.000000	0.000000	1
60.431034	6.315140	0.000000	0.005140	-0.012769	0.000000	0.013764	-2.585135	0.000000	0.000000	0.000000	0.000000	0.000000	1
63.540026	6.315140	0.000000	0.001655	-0.018500	0.000000	0.018574	-1.332772	0.000000	0.000000	0.000000	0.000000	0.000000	1
66.649018	6.315140	0.000000	-0.010307	-0.022000	0.000000	0.024295	3.419270	0.000000	0.000000	0.000000	0.000000	0.000000	1
69.758010	6.315140	0.000000	-0.014132	-0.021934	0.000000	0.026093	5.059489	0.000000	0.000000	0.000000	0.000000	0.000000	1
72.867002	6.315140	0.000000	-0.019430	-0.016268	0.000000	0.025341	3.940889	0.000000	0.000000	0.000000	0.000000	0.000000	1
75.975994	6.315140	0.000000	-0.006078	0.000240	0.000000	0.006083	3.981914	0.000000	0.000000	0.000000	0.000000	0.000000	1
79.084987	6.315140	0.000000	0.015652	0.036247	0.000000	0.039482	3.858012	0.000000	0.000000	0.000000	0.000000	0.000000	1
82.193979	6.315140	0.000000	0.044529	0.028985	0.000000	0.053131	17.496014	0.000000	0.000000	0.000000	0.000000	0.000000	2
85.302971	6.315140	0.000000	0.079111	0.043260	0.000000	0.090167	73.703436	0.000000	0.000000	0.000000	0.000000	0.000000	1
88.411963	6.315140	0.000000	0.227989	0.331471	0.000000	0.402309	135.496927	0.000000	0.000000	0.000000	0.000000	0.000000	1
91.520955	6.315140	0.000000	0.349177	0.859862	0.000000	0.928055	66.935184	0.000000	0.000000	0.000000	0.000000	0.000000	1
94.629947	6.315140	0.000000	0.315049	0.828755	0.000000	0.886617	-88.806471	0.000000	0.000000	0.000000	0.000000	0.000000	1
97.738939	6.315140	0.000000	0.208292	0.264980	0.000000	0.337046	-90.969661	0.000000	0.000000	0.000000	0.000000	0.000000	1
100.847931	6.315140	0.000000	0.200100	0.259047	0.000000	0.327331	-53.533959	0.000000	0.000000	0.000000	0.000000	0.000000	1
103.956923	6.315140	0.000000	-0.006608	0.004087	0.000000	0.007770	-41.085190	0.000000	0.000000	0.000000	0.000000	0.000000	1
107.065915	6.315140	0.000000	-0.004726	0.002343	0.000000	0.005275	-0.814466	0.000000	0.000000	0.000000	0.000000	0.000000	1
110.174908	6.315140	0.000000	-0.005167	-0.009110	0.000000	0.010473	-0.755569	0.000000	0.000000	0.000000	0.000000	0.000000	1
113.283900	6.315140	0.000000	-0.009258	-0.006124	0.000000	0.011101	0.605905	0.000000	0.000000	0.000000	0.000000	0.000000	1
116.392892	6.315140	0.000000	-0.000022	0.000227	0.000000	0.000228	0.673204	0.000000	0.000000	0.000000	0.000000	0.000000	1
119.501884	6.315140	0.000000	0.000405	0.000235	0.000000	0.000468	0.066825	0.000000	0.000000	0.000000	0.000000	0.000000	1
122.610876	6.315140	0.000000	-0.002306	-0.002499	0.000000	0.003400	0.701374	0.000000	0.000000	0.000000	0.000000	0.000000	1
125.719868	6.315140	0.000000	-0.001089	-0.002139	0.000000	0.002401	1.421963	0.000000	0.000000	0.000000	0.000000	0.000000	1
128.828860	6.315140	0.000000	0.001001	-0.000928	0.000000	0.001365	1.969382	0.000000	0.000000	0.000000	0.000000	0.000000	1
131.937852	6.315140	0.000000	-0.004512	0.004378	0.000000	0.006287	2.524158	0.000000	0.000000	0.000000	0.000000	0.000000	1
135.046844	6.315140	0.000000	-0.000972	0.005173	0.000000	0.005263	1.349430	0.000000	0.000000	0.000000	0.000000	0.000000	1
138.155836	6.315140	0.000000	0.000386	0.004622	0.000000	0.004638	0.744507	0.000000	0.000000	0.000000	0.000000	0.000000	1
141.264829	6.315140	0.000000	-0.007824	0.007627	0.000000	0.010927	0.608889	0.000000	0.000000	0.000000	0.000000	0.000000	1
144.373821	6.315140	0.000000	-0.004150	0.004820	0.000000	0.006360	-0.408099	0.000000	0.000000	0.000000	0.000000	0.000000	1
147.482813	6.315140	0.000000	-0.002430	0.003295	0.000000	0.004094	-0.249563	0.000000	0.000000	0.000000	0.000000	0.000000	1
150.591805	6.315140	0.000000	-0.007545	0.005597	0.000000	0.009394	0.114034	0.000000	0.000000	0.000000	0.000000	0.000000	1
153.700797	6.315140	0.000000	-0.008361	0.004665	0.000000	0.009574	-0.627083	0.000000	0.000000	0.000000	0.000000	0.000000	1
156.809789	6.315140	0.000000	-0.003036	0.004069	0.000000	0.005077	-0.782928	0.000000	0.000000	0.000000	0.000000	0.000000	1
159.918781	6.315140	0.000000	-0.002830	0.004449	0.000000	0.005273	-0.513302	0.000000	0.000000	0.000000	0.000000	0.000000	1
4.469176	9.424132	0.000000	0.001493	0.005083	0.000000	0.005298	-0.381278	0.000000	0.000000	0.000000	0.000000	0.000000	1
7.578168	9.424132	0.000000	0.002167	0.005506	0.000000	0.005917	-0.442607	0.000000	0.000000	0.000000	0.000000	0.000000	1
10.687160	9.424132	0.000000	0.002186	0.005056	0.000000	0.005508	-0.357145	0.000000	0.000000	0.000000	0.000000	0.000000	1
13.796152	9.424132	0.000000	0.002063	0.006127	0.000000	0.006465	-0.454142	0.000000	0.000000	0.000000	0.000000	0.000000	1
16.905145	9.424132	0.000000	0.000372	0.007140	0.000000	0.007149	-1.137575	0.000000	0.000000	0.000000	0.000000	0.000000	1
20.014137	9.424132	0.000000	0.000925	0.002827	0.000000	0.002975	-1.216553	0.000000	0.000000	0.000000	0.000000	0.000000	1
23.123129	9.424132	0.000000	0.002945	0.003981	0.000000	0.004952	-0.075979	0.000000	0.000000	0.000000	0.000000	0.000000	1
26.232121	9.424132	0.000000	0.001838	0.006003	0.000000	0.006278	0.257461	0.000000	0.000000	0.000000	0.000000	0.000000	1
29.341113	9.424132	0.000000	0.001466	0.003744	0.000000	0.004021	-0.127638	0.000000	0.000000	0.000000	0.000000	0.000000	1
32.450105	9.424132	0.000000	0.004632	0.003155	0.000000	0.005604	0.259977	0.000000	0.000000	0.000000	0.000000	0.000000	1
35.559097	9.424132	0.000000	0.007591	0.004507	0.000000	0.008828	1.316756	0.000000	0.000000	0.000000	0.000000	0.000000	1
38.668089	9.424132	0.000000	0.009443	0.000517	0.000000	0.009457	5.621941	0.000000	0.000000	0.000000	0.000000	0.000000	2
41.777081	9.424132	0.000000	0.010355	-0.004431	0.000000	0.011263	12.181414	0.000000	0.000000	0.000000	0.000000	0.000000	2
44.886073	9.424132	0.000000	0.011906	0.009297	0.000000	0.015106	16.718419	0.000000	0.000000	0.000000	0.000000	0.000000	1
47.995066	9.424132	0.000000	-0.030729	0.036904	0.000000	0.048023	14.806336	0.000000	0.000000	0.000000	0.000000	0.000000	2
51.104058	9.424132	0.000000	-0.048411	0.033200	0.000000	0.058702	10.221122	0.000000	0.000000	0.000000	0.000000	0.000000	2
54.213050	9.424132	0.000000	-0.006081	0.034529	0.000000	0.035060	5.516702	0.000000	0.000000	0.000000	0.000000	0.000000	1
57.322042	9.424132	0.000000	-0.005960	0.013053	0.000000	0.014349	-1.784963	0.000000	0.000000	0.000000	0.000000	0.000000	1
60.431034	9.424132	0.000000	0.008127	-0.009786	0.000000	0.012721	-3.606164	0.000000	0.000000	0.000000	0.000000	0.000000	1
63.540026	9.424132	0.000000	0.019470	-0.011218	0.000000	0.022470	0.836834	0.000000	0.000000	0.000000	0.000000	0.000000	2
66.649018	9.424132	0.000000	-0.019496	-0.011100	0.000000	0.022434	5.537996	0.000000	0.000000	0.000000	0.000000	0.000000	1
69.758010	9.424132	0.000000	-0.020609	0.022598	0.000000	0.030584	4.838324	0.000000	0.000000	0.000000	0.000000	0.000000	1
72.867002	9.424132	0.000000	-0.016976	0.022510	0.000000	0.028194	2.156195	0.000000	0.000000	0.000000	0.000000	0.000000	1
75.975994	9.424132	0.000000	0.008338	0.038526	0.000000	0.039418	0.176409	0.000000	0.000000	0.000000	0.000000	0.000000	2
79.084987	9.424132	0.000000	0.032136	0.027687	0.000000	0.042418	1.398133	0.000000	0.000000	0.000000	0.000000	0.000000	1
82.193979	9.424132	0.000000	0.011543	0.023021	0.000000	0.025753	22.389453	0.000000	0.000000	0.000000	0.000000	0.000000	1
85.302971	9.424132	0.000000	0.058733	0.134257	0.000000	0.146541	59.916474	0.000000	0.000000	0.000000	0.000000	0.000000	2
88.411963	9.424132	0.000000	0.170129	0.310355	0.000000	0.353927	125.959443	0.000000	0.000000	0.000000	0.000000	0.000000	1
91.520955	9.424132	0.000000	0.254852	0.828458	0.000000	0.866771	89.802953	0.000000	0.000000	0.000000	0.000000	0.000000	1
94.629947	9.424132	0.000000	0.270889	0.725558	0.000000	0.774477	-40.107299	0.000000	0.000000	0.000000	0.000000	0.000000	1
97.738939	9.424132	0.000000	0.194249	0.438769	0.000000	0.479845	-53.554489	0.000000	0.000000	0.000000	0.000000	0.000000	1
100.847931	9.424132	0.000000	0.156879	0.333324	0.000000	0.368396	-66.413487	0.000000	0.000000	0.000000	0.000000	0.000000	1
103.956923	9.424132	0.000000	-0.011545	0.005706	0.000000	0.012878	-63.283939	0.000000	0.000000	0.000000	0.000000	0.000000	1
107.065915	9.424132	0.000000	-0.004116	0.000243	0.000000	0.004123	-7.184333	0.000000	0.000000	0.000000	0.000000	0.000000	1
110.174908	9.424132	0.000000	-0.000728	0.000220	0.000000	0.000761	-0.950586	0.000000	0.000000	0.000000	0.000000	0.000000	1
113.283900	9.424132	0.000000	-0.000427	0.000088	0.000000	0.000436	-0.511113	0.000000	0.000000	0.000000	0.000000	0.000000	1
116.392892	9.424132	0.000000	-0.000880	-0.001682	0.000000	0.001898	-0.125282	0.000000	0.000000	0.000000	0.000000	0.000000	1
119.501884	9.424132	0.000000	-0.000504	-0.001830	0.000000	0.001898	-0.639452	0.000000	0.000000	0.000000	0.000000	0.000000	1
122.610876	9.424132	0.000000	-0.007910	-0.010421	0.000000	0.013083	0.340978	0.000000	0.000000	0.000000	0.000000	0.000000	1
125.719868	9.424132	0.000000	-0.004890	-0.005192	0.000000	0.007132	2.204152	0.000000	0.000000	0.000000	0.000000	0.000000	1
128.828860	9.424132	0.000000	0.001021	0.002634	0.000000	0.002826	2.412471	0.000000	0.000000	0.000000	0.000000	0.000000	1
131.937852	9.424132	0.000000	-0.015830	0.009918	0.000000	0.018680	1.709810	0.000000	0.000000	0.000000	0.000000	0.000000	1
135.046844	9.424132	0.000000	-0.003891	0.008211	0.000000	0.009086	0.485220	0.000000	0.000000	0.000000	0.000000	0.000000	1
138.155836	9.424132	0.000000	0.001957	0.006405	0.000000	0.006697	-0.114786	0.000000	0.000000	0.000000	0.000000	0.000000	1
141.264829	9.424132	0.000000	-0.006890	0.007501	0.000000	0.010185	-0.632469	0.000000	0.000000	0.000000	0.000000	0.000000	1
144.373821	9.424132	0.000000	-0.006299	0.006747	0.000000	0.009230	-0.363505	0.000000	0.000000	0.000000	0.000000	0.000000	1
147.482813	9.424132	0.000000	-0.005502	0.004978	0.000000	0.007420	0.390083	0.000000	0.000000	0.000000	0.000000	0.000000	1
150.591805	9.424132	0.000000	-0.002818	0.005312	0.000000	0.006013	-0.326927	0.000000	0.000000	0.000000	0.000000	0.000000	1
153.700797	9.424132	0.000000	-0.002543	0.002138	0.000000	0.003322	-0.823132	0.000000	0.000000	0.000000	0.000000	0.000000	1
156.809789	9.424132	0.000000	-0.001592	0.002197	0.000000	0.002713	-0.051932	0.000000	0.000000	0.000000	0.000000	0.000000	1
159.918781	9.424132	0.000000	-0.001560	0.003002	0.000000	0.003383	0.371147	0.000000	0.000000	0.000000	0.000000	0.000000	1
4.469176	12.533124	0.000000	0.001562	0.005039	0.000000	0.005275	-1.177864	0.000000	0.000000	0.000000	0.000000	0.000000	1
7.578168	12.533124	0.000000	0.000654	0.003846	0.000000	0.003902	-0.302918	0.000000	0.000000	0.000000	0.000000	0.000000	1
10.687160	12.533124	0.000000	0.003401	0.005008	0.000000	0.006054	0.575396	0.000000	0.000000	0.000000	0.000000	0.000000	1
13.796152	12.533124	0.000000	0.005735	0.006645	0.000000	0.008778	0.139501	0.000000	0.000000	0.000000	0.000000	0.000000	1
16.905145	12.533124	0.000000	0.003041	0.003685	0.000000	0.004778	-0.231540	0.000000	0.000000	0.000000	0.000000	0.000000	1
20.014137	12.533124	0.000000	0.008896	0.007461	0.000000	0.011610	-0.322967	0.000000	0.000000	0.000000	0.000000	0.000000	1
23.123129	12.533124	0.000000	0.007029	0.005885	0.000000	0.009167	0.048877	0.000000	0.000000	0.000000	0.000000	0.000000	1
26.232121	12.533124	0.000000	0.000028	0.006105	0.000000	0.006106	-0.116167	0.000000	0.000000	0.000000	0.000000	0.000000	1
29.341113	12.533124	0.000000	0.001771	0.005509	0.000000	0.005787	-0.402032	0.000000	0.000000	0.000000	0.000000	0.000000	1
32.450105	12.533124	0.000000	0.003497	0.003163	0.000000	0.004715	0.322458	0.000000	0.000000	0.000000	0.000000	0.000000	1
35.559097	12.533124	0.000000	-0.000278	-0.001629	0.000000	0.001653	3.669143	0.000000	0.000000	0.000000	0.000000	0.000000	1
38.668089	12.533124	0.000000	-0.006411	0.003681	0.000000	0.007393	13.776554	0.000000	0.000000	0.000000	0.000000	0.000000	1
41.777081	12.533124	0.000000	-0.072078	0.018960	0.000000	0.074530	22.095758	0.000000	0.000000	0.000000	0.000000	0.000000	1
44.886073	12.533124	0.000000	-0.057657	0.026235	0.000000	0.063345	19.148425	0.000000	0.000000	0.000000	0.000000	0.000000	1
47.995066	12.533124	0.000000	-0.074683	0.043135	0.000000	0.086245	5.756719	0.000000	0.000000	0.000000	0.000000	0.000000	2
51.104058	12.533124	0.000000	-0.053491	0.034878	0.000000	0.063858	-0.576835	0.000000	0.000000	0.000000	0.000000	0.000000	2
54.213050	12.533124	0.000000	-0.048479	0.028168	0.000000	0.056068	2.581371	0.000000	0.000000	0.000000	0.000000	0.000000	1
57.322042	12.533124	0.000000	-0.007860	0.021897	0.000000	0.023265	-0.090610	0.000000	0.000000	0.000000	0.000000	0.000000	1
60.431034	12.533124	0.000000	0.016056	0.000482	0.000000	0.016063	0.720251	0.000000	0.000000	0.000000	0.000000	0.000000	1
63.540026	12.533124	0.000000	-0.006787	-0.009704	0.000000	0.011843	7.990703	0.000000	0.000000	0.000000	0.000000	0.000000	2
66.649018	12.533124	0.000000	-0.021461	0.016031	0.000000	0.026788	9.027412	0.000000	0.000000	0.000000	0.000000	0.000000	1
69.758010	12.533124	0.000000	-0.023172	0.024047	0.000000	0.033395	5.488314	0.000000	0.000000	0.000000	0.000000	0.000000	1
72.867002	12.533124	0.000000	-0.016471	0.037143	0.000000	0.040632	4.061042	0.000000	0.000000	0.000000	0.000000	0.000000	1
75.975994	12.533124	0.000000	0.015440	0.042042	0.000000	0.044787	2.876530	0.000000	0.000000	0.000000	0.000000	0.000000	1
79.084987	12.533124	0.000000	0.017844	0.026848	0.000000	0.032237	9.009543	0.000000	0.000000	0.000000	0.000000	0.000000	1
82.193979	12.533124	0.000000	0.005175	0.065628	0.000000	0.065832	37.665524	0.000000	0.000000	0.000000	0.000000	0.000000	2
85.302971	12.533124	0.000000	0.091031	0.298969	0.000000	0.312520	64.546233	0.000000	0.000000	0.000000	0.000000	0.000000	2
88.411963	12.533124	0.000000	0.101092	0.536304	0.000000	0.545748	81.760730	0.000000	0.000000	0.000000	0.000000	0.000000	1
91.520955	12.533124	0.000000	0.082302	0.718076	0.000000	0.722777	40.134486	0.000000	0.000000	0.000000	0.000000	0.000000	1
94.629947	12.533124	0.000000	0.127649	0.594146	0.000000	0.607703	-34.795696	0.000000	0.000000	0.000000	0.000000	0.000000	1
97.738939	12.533124	0.000000	0.250432	0.495252	0.000000	0.554969	-46.052624	0.000000	0.000000	0.000000	0.000000	0.000000	2
100.847931	12.533124	0.000000	0.219651	0.532746	0.000000	0.576251	-85.260299	0.000000	0.000000	0.000000	0.000000	0.000000	2
103.956923	12.533124	0.000000	0.042204	0.100490	0.000000	0.108993	-86.288999	0.000000	0.000000	0.000000	0.000000	0.000000	2
107.065915	12.533124	0.000000	-0.003848	-0.000332	0.000000	0.003862	-19.314698	0.000000	0.000000	0.000000	0.000000	0.000000	1
110.174908	12.533124	0.000000	-0.001857	-0.000149	0.000000	0.001863	-0.168344	0.000000	0.000000	0.000000	0.000000	0.000000	1
113.283900	12.533124	0.000000	-0.001648	-0.000089	0.000000	0.001650	-0.021915	0.000000	0.000000	0.000000	0.000000	0.000000	1
116.392892	12.533124	0.000000	-0.001442	-0.001285	0.000000	0.001931	-0.322103	0.000000	0.000000	0.000000	0.000000	0.000000	1
119.501884	12.533124	0.000000	-0.001358	-0.002722	0.000000	0.003042	-1.046527	0.000000	0.000000	0.000000	0.000000	0.000000	1
122.610876	12.533124	0.000000	-0.007661	-0.007286	0.000000	0.010573	-0.964918	0.000000	0.000000	0.000000	0.000000	0.000000	1
125.719868	12.533124	0.000000	-0.006670	-0.003197	0.000000	0.007397	0.975230	0.000000	0.000000	0.000000	0.000000	0.000000	1
128.828860	12.533124	0.000000	0.000387	0.002722	0.000000	0.002749	1.962387	0.000000	0.000000	0.000000	0.000000	0.000000	1
131.937852	12.533124	0.000000	-0.010889	0.006882	0.000000	0.012882	0.780810	0.000000	0.000000	0.000000	0.000000	0.000000	1
135.046844	12.533124	0.000000	-0.006946	0.008652	0.000000	0.011096	-0.043873	0.000000	0.000000	0.000000	0.000000	0.000000	1
138.155836	12.533124	0.000000	-0.000505	0.006517	0.000000	0.006537	-0.088848	0.000000	0.000000	0.000000	0.000000	0.000000	1
141.264829	12.533124	0.000000	-0.001959	0.002873	0.000000	0.003477	-0.280855	0.000000	0.000000	0.000000	0.000000	0.000000	1
144.373821	12.533124	0.000000	-0.001946	0.002949	0.000000	0.003533	0.524176	0.000000	0.000000	0.000000	0.000000	0.000000	1
147.482813	12.533124	0.000000	-0.008353	0.007560	0.000000	0.011267	0.693067	0.000000	0.000000	0.000000	0.000000	0.000000	1
150.591805	12.533124	0.000000	-0.007277	0.005368	0.000000	0.009043	-0.233040	0.000000	0.000000	0.000000	0.000000	0.000000	1
153.700797	12.533124	0.000000	-0.004236	0.002476	0.000000	0.004906	-0.208142	0.000000	0.000000	0.000000	0.000000	0.000000	1
156.809789	12.533124	0.000000	-0.003414	0.000795	0.000000	0.003505	0.084316	0.000000	0.000000	0.000000	0.000000	0.000000	1
159.918781	12.533124	0.000000	-0.005469	0.000403	0.000000	0.005483	0.066851	0.000000	0.000000	0.000000	0.000000	0.000000	1
4.469176	15.642117	0.000000	0.004729	0.014402	0.000000	0.015158	-3.193996	0.000000	0.000000	0.000000	0.000000	0.000000	1
7.578168	15.642117	0.000000	-0.000373	0.002412	0.000000	0.002440	-1.416425	0.000000	0.000000	0.000000	0.000000	0.000000	1
10.687160	15.642117	0.000000	-0.000300	0.002626	0.000000	0.002643	0.462334	0.000000	0.000000	0.000000	0.000000	0.000000	1
13.796152	15.642117	0.000000	0.001372	0.002301	0.000000	0.002679	0.662442	0.000000	0.000000	0.000000	0.000000	0.000000	1
16.905145	15.642117	0.000000	0.002262	0.004680	0.000000	0.005198	0.810577	0.000000	0.000000	0.000000	0.000000	0.000000	1
20.014137	15.642117	0.000000	0.004903	0.005278	0.000000	0.007204	0.635353	0.000000	0.000000	0.000000	0.000000	0.000000	1
23.123129	15.642117	0.000000	0.002252	0.004558	0.000000	0.005084	1.220242	0.000000	0.000000	0.000000	0.000000	0.000000	1
26.232121	15.642117	0.000000	0.006784	0.013566	0.000000	0.015168	0.561921	0.000000	0.000000	0.000000	0.000000	0.000000	1
29.341113	15.642117	0.000000	-0.000739	0.009651	0.000000	0.009679	-0.452537	0.000000	0.000000	0.000000	0.000000	0.000000	1
32.450105	15.642117	0.000000	-0.001296	0.006907	0.000000	0.007027	0.507672	0.000000	0.000000	0.000000	0.000000	0.000000	1
35.559097	15.642117	0.000000	-0.005090	0.004442	0.000000	0.006756	3.478397	0.000000	0.000000	0.000000	0.000000	0.000000	1
38.668089	15.642117	0.000000	-0.074617	-0.015584	0.000000	0.076228	11.144506	0.000000	0.000000	0.000000	0.000000	0.000000	1
41.777081	15.642117	0.000000	-0.106671	0.017024	0.000000	0.108021	16.206873	0.000000	0.000000	0.000000	0.000000	0.000000	1
44.886073	15.642117	0.000000	-0.090775	0.059301	0.000000	0.108428	12.094537	0.000000	0.000000	0.000000	0.000000	0.000000	1
47.995066	15.642117	0.000000	-0.040129	0.071811	0.000000	0.082262	3.015072	0.000000	0.000000	0.000000	0.000000	0.000000	1
51.104058	15.642117	0.000000	-0.063463	0.024761	0.000000	0.068122	1.381956	0.000000	0.000000	0.000000	0.000000	0.000000	1
54.213050	15.642117	0.000000	-0.049456	0.006896	0.000000	0.049934	4.732090	0.000000	0.000000	0.000000	0.000000	0.000000	1
57.322042	15.642117	0.000000	-0.017639	0.021593	0.000000	0.027882	3.900363	0.000000	0.000000	0.000000	0.000000	0.000000	1
60.431034	15.642117	0.000000	-0.008994	0.020474	0.000000	0.022363	6.627973	0.000000	0.000000	0.000000	0.000000	0.000000	1
63.540026	15.642117	0.000000	-0.029713	0.031877	0.000000	0.043577	9.448450	0.000000	0.000000	0.000000	0.000000	0.000000	1
66.649018	15.642117	0.000000	-0.051224	0.042220	0.000000	0.066381	5.064122	0.000000	0.000000	0.000000	0.000000	0.000000	1
69.758010	15.642117	0.000000	-0.031569	0.031488	0.000000	0.044588	4.113324	0.000000	0.000000	0.000000	0.000000	0.000000	1
72.867002	15.642117	0.000000	-0.019605	0.046614	0.000000	0.050569	4.602004	0.000000	0.000000	0.000000	0.000000	0.000000	1
75.975994	15.642117	0.000000	-0.016711	0.039310	0.000000	0.042715	0.748830	0.000000	0.000000	0.000000	0.000000	0.000000	1
79.084987	15.642117	0.000000	-0.015451	0.033259	0.000000	0.036673	9.924420	0.000000	0.000000	0.000000	0.000000	0.000000	1
82.193979	15.642117	0.000000	0.010654	0.110616	0.000000	0.111127	38.330566	0.000000	0.000000	0.000000	0.000000	0.000000	2
85.302971	15.642117	0.000000	0.101564	0.312730	0.000000	0.328809	56.084237	0.000000	0.000000	0.000000	0.000000	0.000000	2
88.411963	15.642117	0.000000	0.113267	0.515236	0.000000	0.527539	51.428165	0.000000	0.000000	0.000000	0.000000	0.000000	1
91.520955	15.642117	0.000000	0.179028	0.667149	0.000000	0.690752	4.717503	0.000000	0.000000	0.000000	0.000000	0.000000	2
94.629947	15.642117	0.000000	0.230916	0.734091	0.000000	0.769553	-50.908349	0.000000	0.000000	0.000000	0.000000	0.000000	2
97.738939	15.642117	0.000000	0.292075	0.579105	0.000000	0.648591	-61.468498	0.000000	0.000000	0.000000	0.000000	0.000000	2
100.847931	15.642117	0.000000	0.286159	0.388663	0.000000	0.482645	-91.756968	0.000000	0.000000	0.000000	0.000000	0.000000	1
103.956923	15.642117	0.000000	0.101827	0.150856	0.000000	0.182007	-82.120021	0.000000	0.000000	0.000000	0.000000	0.000000	2
107.065915	15.642117	0.000000	0.001251	0.003113	0.000000	0.003355	-20.185431	0.000000	0.000000	0.000000	0.000000	0.000000	1
110.174908	15.642117	0.000000	-0.002041	0.000021	0.000000	0.002041	-0.823273	0.000000	0.000000	0.000000	0.000000	0.000000	1
113.283900	15.642117	0.000000	-0.001642	0.000120	0.000000	0.001647	-0.377621	0.000000	0.000000	0.000000	0.000000	0.000000	1
116.392892	15.642117	0.000000	-0.000665	0.000118	0.000000	0.000676	-0.423679	0.000000	0.000000	0.000000	0.000000	0.000000	1
119.501884	15.642117	0.000000	-0.000511	-0.001501	0.000000	0.001586	-0.252144	0.000000	0.000000	0.000000	0.000000	0.000000	1
122.610876	15.642117	0.000000	0.001943	0.004886	0.000000	0.005259	-0.471134	0.000000	0.000000	0.000000	0.000000	0.000000	1