TITLE = "PIV Result  95 "
VARIABLES = "X (mm)""Y (mm)""Z (mm)""U (m/s)""V (m/s)""W (m/s)""Speed (m/s)""Vorticity""U-std""V-std""W-std""Speed-std""Vorticity-std""Flag"
ZONE T="ZONE 95 "
I= 51 , J= 16 , K= 1 , F=POINT
DT=(DOUBLE DOUBLE DOUBLE DOUBLE DOUBLE DOUBLE DOUBLE DOUBLE DOUBLE DOUBLE DOUBLE DOUBLE DOUBLE DOUBLE)
4.469176	3.206148	0.000000	0.004870	0.008475	0.000000	0.009775	3.778088	0.000000	0.000000	0.000000	0.000000	0.000000	1
7.578168	3.206148	0.000000	0.007334	0.013514	0.000000	0.015376	3.420210	0.000000	0.000000	0.000000	0.000000	0.000000	1
10.687160	3.206148	0.000000	0.008893	0.012687	0.000000	0.015493	2.384382	0.000000	0.000000	0.000000	0.000000	0.000000	1
13.796152	3.206148	0.000000	0.009490	0.011089	0.000000	0.014596	1.107663	0.000000	0.000000	0.000000	0.000000	0.000000	1
16.905145	3.206148	0.000000	0.005400	0.008394	0.000000	0.009981	0.841340	0.000000	0.000000	0.000000	0.000000	0.000000	1
20.014137	3.206148	0.000000	0.005355	0.007565	0.000000	0.009269	1.812171	0.000000	0.000000	0.000000	0.000000	0.000000	1
23.123129	3.206148	0.000000	0.005538	0.012714	0.000000	0.013867	1.552659	0.000000	0.000000	0.000000	0.000000	0.000000	1
26.232121	3.206148	0.000000	0.001335	0.016221	0.000000	0.016276	-0.709075	0.000000	0.000000	0.000000	0.000000	0.000000	1
29.341113	3.206148	0.000000	-0.000322	0.012958	0.000000	0.012962	-0.698048	0.000000	0.000000	0.000000	0.000000	0.000000	1
32.450105	3.206148	0.000000	-0.002092	0.012590	0.000000	0.012763	-2.489930	0.000000	0.000000	0.000000	0.000000	0.000000	1
35.559097	3.206148	0.000000	-0.001291	0.001196	0.000000	0.001759	-6.542497	0.000000	0.000000	0.000000	0.000000	0.000000	1
38.668089	3.206148	0.000000	-0.000717	0.000871	0.000000	0.001128	-3.811746	0.000000	0.000000	0.000000	0.000000	0.000000	1
41.777081	3.206148	0.000000	0.002481	0.000350	0.000000	0.002506	0.029767	0.000000	0.000000	0.000000	0.000000	0.000000	1
44.886073	3.206148	0.000000	0.001637	-0.000406	0.000000	0.001687	-0.938121	0.000000	0.000000	0.000000	0.000000	0.000000	1
47.995066	3.206148	0.000000	-0.000116	-0.000143	0.000000	0.000184	-1.342954	0.000000	0.000000	0.000000	0.000000	0.000000	1
51.104058	3.206148	0.000000	-0.001607	-0.001508	0.000000	0.002204	-3.404377	0.000000	0.000000	0.000000	0.000000	0.000000	1
54.213050	3.206148	0.000000	-0.005829	-0.001857	0.000000	0.006118	-8.550577	0.000000	0.000000	0.000000	0.000000	0.000000	1
57.322042	3.206148	0.000000	0.001888	-0.000608	0.000000	0.001984	-7.463814	0.000000	0.000000	0.000000	0.000000	0.000000	1
60.431034	3.206148	0.000000	0.002894	-0.000920	0.000000	0.003036	11.995882	0.000000	0.000000	0.000000	0.000000	0.000000	1
63.540026	3.206148	0.000000	-0.049048	0.000778	0.000000	0.049055	49.878786	0.000000	0.000000	0.000000	0.000000	0.000000	2
66.649018	3.206148	0.000000	-0.269193	0.117286	0.000000	0.293634	121.930207	0.000000	0.000000	0.000000	0.000000	0.000000	2
69.758010	3.206148	0.000000	-0.600995	0.430179	0.000000	0.739086	136.897653	0.000000	0.000000	0.000000	0.000000	0.000000	2
72.867002	3.206148	0.000000	-0.962268	0.784076	0.000000	1.241263	62.127028	0.000000	0.000000	0.000000	0.000000	0.000000	1
75.975994	3.206148	0.000000	-0.869415	0.919340	0.000000	1.265334	-106.996427	0.000000	0.000000	0.000000	0.000000	0.000000	1
79.084987	3.206148	0.000000	-0.572838	0.500765	0.000000	0.760861	-185.676252	0.000000	0.000000	0.000000	0.000000	0.000000	2
82.193979	3.206148	0.000000	-0.321485	0.091615	0.000000	0.334284	-95.729448	0.000000	0.000000	0.000000	0.000000	0.000000	1
85.302971	3.206148	0.000000	-0.049564	-0.036856	0.000000	0.061766	-27.419765	0.000000	0.000000	0.000000	0.000000	0.000000	1
88.411963	3.206148	0.000000	0.004753	-0.013457	0.000000	0.014271	7.235226	0.000000	0.000000	0.000000	0.000000	0.000000	1
91.520955	3.206148	0.000000	0.007177	0.003504	0.000000	0.007986	4.558955	0.000000	0.000000	0.000000	0.000000	0.000000	1
94.629947	3.206148	0.000000	0.002877	-0.030824	0.000000	0.030958	-1.584587	0.000000	0.000000	0.000000	0.000000	0.000000	2
97.738939	3.206148	0.000000	0.006925	-0.001776	0.000000	0.007149	-4.254311	0.000000	0.000000	0.000000	0.000000	0.000000	1
100.847931	3.206148	0.000000	0.001380	-0.001727	0.000000	0.002211	-3.000706	0.000000	0.000000	0.000000	0.000000	0.000000	1
103.956923	3.206148	0.000000	-0.001312	-0.000761	0.000000	0.001516	2.712770	0.000000	0.000000	0.000000	0.000000	0.000000	1
107.065915	3.206148	0.000000	-0.001813	0.000037	0.000000	0.001813	3.025173	0.000000	0.000000	0.000000	0.000000	0.000000	1
110.174908	3.206148	0.000000	-0.002595	-0.000678	0.000000	0.002682	4.953596	0.000000	0.000000	0.000000	0.000000	0.000000	1
113.283900	3.206148	0.000000	-0.002193	-0.000547	0.000000	0.002260	5.259956	0.000000	0.000000	0.000000	0.000000	0.000000	1
116.392892	3.206148	0.000000	-0.000253	-0.000689	0.000000	0.000734	3.727800	0.000000	0.000000	0.000000	0.000000	0.000000	1
119.501884	3.206148	0.000000	0.001002	-0.000529	0.000000	0.001133	3.594965	0.000000	0.000000	0.000000	0.000000	0.000000	1
122.610876	3.206148	0.000000	-0.002012	0.000376	0.000000	0.002047	2.339548	0.000000	0.000000	0.000000	0.000000	0.000000	1
125.719868	3.206148	0.000000	-0.000959	0.000238	0.000000	0.000989	0.204465	0.000000	0.000000	0.000000	0.000000	0.000000	1
128.828860	3.206148	0.000000	-0.001848	0.000220	0.000000	0.001861	-0.182056	0.000000	0.000000	0.000000	0.000000	0.000000	1
131.937852	3.206148	0.000000	-0.000838	0.000484	0.000000	0.000968	0.643375	0.000000	0.000000	0.000000	0.000000	0.000000	1
135.046844	3.206148	0.000000	-0.007532	0.013128	0.000000	0.015135	0.021120	0.000000	0.000000	0.000000	0.000000	0.000000	1
138.155836	3.206148	0.000000	-0.008257	0.011821	0.000000	0.014419	-0.883479	0.000000	0.000000	0.000000	0.000000	0.000000	1
141.264829	3.206148	0.000000	-0.001174	0.010148	0.000000	0.010215	-0.243773	0.000000	0.000000	0.000000	0.000000	0.000000	1
144.373821	3.206148	0.000000	-0.001981	0.009988	0.000000	0.010182	-1.081398	0.000000	0.000000	0.000000	0.000000	0.000000	1
147.482813	3.206148	0.000000	-0.010566	0.006147	0.000000	0.012224	-2.229235	0.000000	0.000000	0.000000	0.000000	0.000000	1
150.591805	3.206148	0.000000	-0.015541	0.012000	0.000000	0.019635	-2.570923	0.000000	0.000000	0.000000	0.000000	0.000000	1
153.700797	3.206148	0.000000	-0.015776	0.013102	0.000000	0.020507	-1.581565	0.000000	0.000000	0.000000	0.000000	0.000000	1
156.809789	3.206148	0.000000	-0.010829	0.010453	0.000000	0.015051	-0.251715	0.000000	0.000000	0.000000	0.000000	0.000000	1
159.918781	3.206148	0.000000	-0.010073	0.010681	0.000000	0.014681	-0.358335	0.000000	0.000000	0.000000	0.000000	0.000000	2
4.469176	6.315140	0.000000	0.000095	0.005579	0.000000	0.005580	1.638460	0.000000	0.000000	0.000000	0.000000	0.000000	1
7.578168	6.315140	0.000000	-0.003214	0.008709	0.000000	0.009283	1.460018	0.000000	0.000000	0.000000	0.000000	0.000000	1
10.687160	6.315140	0.000000	-0.000143	0.008994	0.000000	0.008995	1.129037	0.000000	0.000000	0.000000	0.000000	0.000000	1
13.796152	6.315140	0.000000	0.005103	0.007778	0.000000	0.009302	0.553732	0.000000	0.000000	0.000000	0.000000	0.000000	1
16.905145	6.315140	0.000000	0.000005	0.003855	0.000000	0.003855	0.253016	0.000000	0.000000	0.000000	0.000000	0.000000	1
20.014137	6.315140	0.000000	0.001993	0.003226	0.000000	0.003792	1.064934	0.000000	0.000000	0.000000	0.000000	0.000000	1
23.123129	6.315140	0.000000	0.004032	0.008447	0.000000	0.009360	1.328816	0.000000	0.000000	0.000000	0.000000	0.000000	1
26.232121	6.315140	0.000000	0.005299	0.011469	0.000000	0.012635	-0.041080	0.000000	0.000000	0.000000	0.000000	0.000000	1
29.341113	6.315140	0.000000	0.004263	0.010392	0.000000	0.011233	1.671569	0.000000	0.000000	0.000000	0.000000	0.000000	1
32.450105	6.315140	0.000000	0.008653	0.030298	0.000000	0.031509	0.863449	0.000000	0.000000	0.000000	0.000000	0.000000	1
35.559097	6.315140	0.000000	0.010832	0.029387	0.000000	0.031319	-5.541434	0.000000	0.000000	0.000000	0.000000	0.000000	1
38.668089	6.315140	0.000000	0.001333	-0.002305	0.000000	0.002663	-4.553796	0.000000	0.000000	0.000000	0.000000	0.000000	1
41.777081	6.315140	0.000000	0.000508	-0.002922	0.000000	0.002966	-0.700350	0.000000	0.000000	0.000000	0.000000	0.000000	1
44.886073	6.315140	0.000000	0.001517	-0.002677	0.000000	0.003076	-1.228744	0.000000	0.000000	0.000000	0.000000	0.000000	1
47.995066	6.315140	0.000000	0.006893	-0.009302	0.000000	0.011577	-0.937994	0.000000	0.000000	0.000000	0.000000	0.000000	1
51.104058	6.315140	0.000000	-0.000908	-0.003679	0.000000	0.003789	-2.257425	0.000000	0.000000	0.000000	0.000000	0.000000	1
54.213050	6.315140	0.000000	0.029902	-0.005785	0.000000	0.030457	-4.882400	0.000000	0.000000	0.000000	0.000000	0.000000	1
57.322042	6.315140	0.000000	0.033408	-0.007231	0.000000	0.034182	3.078465	0.000000	0.000000	0.000000	0.000000	0.000000	1
60.431034	6.315140	0.000000	0.020896	0.017231	0.000000	0.027084	36.593095	0.000000	0.000000	0.000000	0.000000	0.000000	1
63.540026	6.315140	0.000000	-0.128283	0.128853	0.000000	0.181823	82.517960	0.000000	0.000000	0.000000	0.000000	0.000000	2
66.649018	6.315140	0.000000	-0.430810	0.217234	0.000000	0.482481	125.744056	0.000000	0.000000	0.000000	0.000000	0.000000	1
69.758010	6.315140	0.000000	-0.771179	0.643123	0.000000	1.004154	95.757577	0.000000	0.000000	0.000000	0.000000	0.000000	1
72.867002	6.315140	0.000000	-0.912808	0.800377	0.000000	1.214010	-11.199080	0.000000	0.000000	0.000000	0.000000	0.000000	1
75.975994	6.315140	0.000000	-0.818630	0.906094	0.000000	1.221131	-152.048906	0.000000	0.000000	0.000000	0.000000	0.000000	1
79.084987	6.315140	0.000000	-0.327046	0.149903	0.000000	0.359764	-169.871942	0.000000	0.000000	0.000000	0.000000	0.000000	1
82.193979	6.315140	0.000000	-0.201401	0.087203	0.000000	0.219469	-74.274729	0.000000	0.000000	0.000000	0.000000	0.000000	2
85.302971	6.315140	0.000000	-0.034393	-0.001835	0.000000	0.034442	-24.054959	0.000000	0.000000	0.000000	0.000000	0.000000	2
88.411963	6.315140	0.000000	-0.019901	-0.022944	0.000000	0.030372	4.514832	0.000000	0.000000	0.000000	0.000000	0.000000	1
91.520955	6.315140	0.000000	-0.006666	-0.000196	0.000000	0.006669	4.253268	0.000000	0.000000	0.000000	0.000000	0.000000	1
94.629947	6.315140	0.000000	-0.001171	-0.005269	0.000000	0.005397	-1.811172	0.000000	0.000000	0.000000	0.000000	0.000000	1
97.738939	6.315140	0.000000	0.027838	-0.015648	0.000000	0.031935	-3.406322	0.000000	0.000000	0.000000	0.000000	0.000000	1
100.847931	6.315140	0.000000	0.033373	-0.017502	0.000000	0.037683	-0.249400	0.000000	0.000000	0.000000	0.000000	0.000000	1
103.956923	6.315140	0.000000	-0.018534	0.013695	0.000000	0.023045	0.680548	0.000000	0.000000	0.000000	0.000000	0.000000	1
107.065915	6.315140	0.000000	-0.009610	0.004220	0.000000	0.010496	-1.441755	0.000000	0.000000	0.000000	0.000000	0.000000	1
110.174908	6.315140	0.000000	-0.021904	-0.000894	0.000000	0.021922	0.357143	0.000000	0.000000	0.000000	0.000000	0.000000	1
113.283900	6.315140	0.000000	-0.024094	-0.001911	0.000000	0.024170	-0.274177	0.000000	0.000000	0.000000	0.000000	0.000000	1
116.392892	6.315140	0.000000	-0.010454	-0.008783	0.000000	0.013653	0.427720	0.000000	0.000000	0.000000	0.000000	0.000000	1
119.501884	6.315140	0.000000	-0.009075	-0.007949	0.000000	0.012064	2.282897	0.000000	0.000000	0.000000	0.000000	0.000000	1
122.610876	6.315140	0.000000	-0.007675	-0.001158	0.000000	0.007762	1.323525	0.000000	0.000000	0.000000	0.000000	0.000000	1
125.719868	6.315140	0.000000	-0.001276	-0.001341	0.000000	0.001851	0.342679	0.000000	0.000000	0.000000	0.000000	0.000000	1
128.828860	6.315140	0.000000	0.001523	-0.001385	0.000000	0.002058	1.530654	0.000000	0.000000	0.000000	0.000000	0.000000	1
131.937852	6.315140	0.000000	0.006807	0.010219	0.000000	0.012278	1.756306	0.000000	0.000000	0.000000	0.000000	0.000000	1
135.046844	6.315140	0.000000	-0.007393	0.012509	0.000000	0.014530	-0.326365	0.000000	0.000000	0.000000	0.000000	0.000000	1
138.155836	6.315140	0.000000	-0.005931	0.009394	0.000000	0.011110	-0.767010	0.000000	0.000000	0.000000	0.000000	0.000000	1
141.264829	6.315140	0.000000	-0.001160	0.009307	0.000000	0.009379	0.732194	0.000000	0.000000	0.000000	0.000000	0.000000	1
144.373821	6.315140	0.000000	-0.002387	0.010143	0.000000	0.010421	-0.029981	0.000000	0.000000	0.000000	0.000000	0.000000	1
147.482813	6.315140	0.000000	-0.003824	0.005803	0.000000	0.006950	-1.077103	0.000000	0.000000	0.000000	0.000000	0.000000	1
150.591805	6.315140	0.000000	-0.002460	0.006567	0.000000	0.007013	-1.253425	0.000000	0.000000	0.000000	0.000000	0.000000	1
153.700797	6.315140	0.000000	-0.013149	0.002406	0.000000	0.013368	-1.096431	0.000000	0.000000	0.000000	0.000000	0.000000	1
156.809789	6.315140	0.000000	-0.009255	0.008353	0.000000	0.012467	-0.838008	0.000000	0.000000	0.000000	0.000000	0.000000	1
159.918781	6.315140	0.000000	-0.008977	0.008567	0.000000	0.012408	-1.252499	0.000000	0.000000	0.000000	0.000000	0.000000	1
4.469176	9.424132	0.000000	0.004056	0.004223	0.000000	0.005856	-1.152476	0.000000	0.000000	0.000000	0.000000	0.000000	1
7.578168	9.424132	0.000000	0.000216	0.005369	0.000000	0.005373	-0.686033	0.000000	0.000000	0.000000	0.000000	0.000000	1
10.687160	9.424132	0.000000	-0.000460	0.005094	0.000000	0.005115	-0.043014	0.000000	0.000000	0.000000	0.000000	0.000000	1
13.796152	9.424132	0.000000	0.001577	0.004000	0.000000	0.004300	0.201751	0.000000	0.000000	0.000000	0.000000	0.000000	1
16.905145	9.424132	0.000000	0.001305	0.004162	0.000000	0.004362	-0.124073	0.000000	0.000000	0.000000	0.000000	0.000000	1
20.014137	9.424132	0.000000	0.002330	0.003793	0.000000	0.004452	0.084483	0.000000	0.000000	0.000000	0.000000	0.000000	1
23.123129	9.424132	0.000000	0.003160	0.004621	0.000000	0.005598	1.148329	0.000000	0.000000	0.000000	0.000000	0.000000	1
26.232121	9.424132	0.000000	0.004044	0.006627	0.000000	0.007764	0.623951	0.000000	0.000000	0.000000	0.000000	0.000000	1
29.341113	9.424132	0.000000	0.001405	0.004231	0.000000	0.004459	3.303941	0.000000	0.000000	0.000000	0.000000	0.000000	1
32.450105	9.424132	0.000000	0.007355	0.029786	0.000000	0.030681	4.464258	0.000000	0.000000	0.000000	0.000000	0.000000	1
35.559097	9.424132	0.000000	0.010082	0.031474	0.000000	0.033049	-2.796776	0.000000	0.000000	0.000000	0.000000	0.000000	1
38.668089	9.424132	0.000000	0.003316	0.005110	0.000000	0.006092	-4.046021	0.000000	0.000000	0.000000	0.000000	0.000000	1
41.777081	9.424132	0.000000	0.003497	0.004129	0.000000	0.005411	-1.011662	0.000000	0.000000	0.000000	0.000000	0.000000	1
44.886073	9.424132	0.000000	0.004177	-0.001685	0.000000	0.004504	-1.639839	0.000000	0.000000	0.000000	0.000000	0.000000	1
47.995066	9.424132	0.000000	0.005551	-0.001418	0.000000	0.005730	-1.572820	0.000000	0.000000	0.000000	0.000000	0.000000	1
51.104058	9.424132	0.000000	0.001442	-0.004986	0.000000	0.005190	-1.776239	0.000000	0.000000	0.000000	0.000000	0.000000	1
54.213050	9.424132	0.000000	0.031114	-0.014176	0.000000	0.034191	3.670985	0.000000	0.000000	0.000000	0.000000	0.000000	1
57.322042	9.424132	0.000000	0.025149	-0.020020	0.000000	0.032145	37.836469	0.000000	0.000000	0.000000	0.000000	0.000000	1
60.431034	9.424132	0.000000	-0.043952	0.052039	0.000000	0.068117	98.089460	0.000000	0.000000	0.000000	0.000000	0.000000	2
63.540026	9.424132	0.000000	-0.288294	0.306891	0.000000	0.421064	133.011709	0.000000	0.000000	0.000000	0.000000	0.000000	2
66.649018	9.424132	0.000000	-0.640389	0.689681	0.000000	0.941148	93.056355	0.000000	0.000000	0.000000	0.000000	0.000000	1
69.758010	9.424132	0.000000	-0.814768	0.781045	0.000000	1.128662	-3.422169	0.000000	0.000000	0.000000	0.000000	0.000000	1
72.867002	9.424132	0.000000	-0.736186	0.665628	0.000000	0.992487	-104.540307	0.000000	0.000000	0.000000	0.000000	0.000000	1
75.975994	9.424132	0.000000	-0.352558	0.242646	0.000000	0.427989	-158.220694	0.000000	0.000000	0.000000	0.000000	0.000000	1
79.084987	9.424132	0.000000	-0.172680	0.128081	0.000000	0.214995	-107.218696	0.000000	0.000000	0.000000	0.000000	0.000000	1
82.193979	9.424132	0.000000	-0.079845	0.041913	0.000000	0.090177	-36.928156	0.000000	0.000000	0.000000	0.000000	0.000000	1
85.302971	9.424132	0.000000	-0.043540	0.011280	0.000000	0.044977	-13.601560	0.000000	0.000000	0.000000	0.000000	0.000000	1
88.411963	9.424132	0.000000	-0.021248	-0.003329	0.000000	0.021508	1.284843	0.000000	0.000000	0.000000	0.000000	0.000000	1
91.520955	9.424132	0.000000	-0.019444	0.007338	0.000000	0.020782	3.031183	0.000000	0.000000	0.000000	0.000000	0.000000	1
94.629947	9.424132	0.000000	-0.001453	0.000904	0.000000	0.001711	-1.600473	0.000000	0.000000	0.000000	0.000000	0.000000	1
97.738939	9.424132	0.000000	0.028879	-0.014852	0.000000	0.032475	-0.493197	0.000000	0.000000	0.000000	0.000000	0.000000	1
100.847931	9.424132	0.000000	0.036237	-0.014015	0.000000	0.038853	2.551928	0.000000	0.000000	0.000000	0.000000	0.000000	1
103.956923	9.424132	0.000000	0.005907	0.018129	0.000000	0.019067	-3.208764	0.000000	0.000000	0.000000	0.000000	0.000000	1
107.065915	9.424132	0.000000	-0.008163	0.000648	0.000000	0.008189	-5.848412	0.000000	0.000000	0.000000	0.000000	0.000000	1
110.174908	9.424132	0.000000	-0.006252	0.002224	0.000000	0.006636	-2.670138	0.000000	0.000000	0.000000	0.000000	0.000000	1
113.283900	9.424132	0.000000	-0.004881	0.006023	0.000000	0.007752	-4.903233	0.000000	0.000000	0.000000	0.000000	0.000000	1
116.392892	9.424132	0.000000	-0.012173	-0.009760	0.000000	0.015603	-3.868433	0.000000	0.000000	0.000000	0.000000	0.000000	1
119.501884	9.424132	0.000000	-0.007246	-0.006057	0.000000	0.009444	-0.291234	0.000000	0.000000	0.000000	0.000000	0.000000	1
122.610876	9.424132	0.000000	-0.003534	0.000768	0.000000	0.003616	0.105708	0.000000	0.000000	0.000000	0.000000	0.000000	1
125.719868	9.424132	0.000000	-0.001350	0.001197	0.000000	0.001805	0.952565	0.000000	0.000000	0.000000	0.000000	0.000000	1
128.828860	9.424132	0.000000	-0.005053	0.004393	0.000000	0.006695	2.451381	0.000000	0.000000	0.000000	0.000000	0.000000	1
131.937852	9.424132	0.000000	-0.003502	0.006437	0.000000	0.007328	2.305896	0.000000	0.000000	0.000000	0.000000	0.000000	1
135.046844	9.424132	0.000000	-0.002173	0.004207	0.000000	0.004734	1.084939	0.000000	0.000000	0.000000	0.000000	0.000000	1
138.155836	9.424132	0.000000	-0.001277	0.003667	0.000000	0.003883	1.094847	0.000000	0.000000	0.000000	0.000000	0.000000	1
141.264829	9.424132	0.000000	-0.006891	0.008117	0.000000	0.010647	1.646649	0.000000	0.000000	0.000000	0.000000	0.000000	1
144.373821	9.424132	0.000000	-0.009938	0.009803	0.000000	0.013959	0.600506	0.000000	0.000000	0.000000	0.000000	0.000000	1
147.482813	9.424132	0.000000	-0.002958	0.004357	0.000000	0.005266	0.400792	0.000000	0.000000	0.000000	0.000000	0.000000	1
150.591805	9.424132	0.000000	-0.005086	0.005867	0.000000	0.007764	0.757827	0.000000	0.000000	0.000000	0.000000	0.000000	1
153.700797	9.424132	0.000000	-0.010300	0.007013	0.000000	0.012461	-0.301237	0.000000	0.000000	0.000000	0.000000	0.000000	1
156.809789	9.424132	0.000000	-0.004769	0.004038	0.000000	0.006248	-1.042979	0.000000	0.000000	0.000000	0.000000	0.000000	1
159.918781	9.424132	0.000000	-0.001475	0.002465	0.000000	0.002872	-1.194515	0.000000	0.000000	0.000000	0.000000	0.000000	1
4.469176	12.533124	0.000000	0.010754	0.011756	0.000000	0.015933	-0.530881	0.000000	0.000000	0.000000	0.000000	0.000000	1
7.578168	12.533124	0.000000	0.000256	0.006132	0.000000	0.006137	-0.585474	0.000000	0.000000	0.000000	0.000000	0.000000	1
10.687160	12.533124	0.000000	-0.000863	0.006416	0.000000	0.006474	-0.590917	0.000000	0.000000	0.000000	0.000000	0.000000	1
13.796152	12.533124	0.000000	0.000226	0.005883	0.000000	0.005887	0.080396	0.000000	0.000000	0.000000	0.000000	0.000000	1
16.905145	12.533124	0.000000	0.003026	0.010984	0.000000	0.011393	-0.035057	0.000000	0.000000	0.000000	0.000000	0.000000	1
20.014137	12.533124	0.000000	0.002474	0.009410	0.000000	0.009729	-0.441383	0.000000	0.000000	0.000000	0.000000	0.000000	1
23.123129	12.533124	0.000000	-0.000069	0.007456	0.000000	0.007456	0.797563	0.000000	0.000000	0.000000	0.000000	0.000000	1
26.232121	12.533124	0.000000	0.000536	0.011573	0.000000	0.011585	0.440762	0.000000	0.000000	0.000000	0.000000	0.000000	1
29.341113	12.533124	0.000000	0.001068	0.004985	0.000000	0.005098	1.526302	0.000000	0.000000	0.000000	0.000000	0.000000	1
32.450105	12.533124	0.000000	0.002012	0.010807	0.000000	0.010993	3.536315	0.000000	0.000000	0.000000	0.000000	0.000000	1
35.559097	12.533124	0.000000	0.004850	0.020082	0.000000	0.020660	-0.239786	0.000000	0.000000	0.000000	0.000000	0.000000	1
38.668089	12.533124	0.000000	0.003351	0.006615	0.000000	0.007415	-1.608576	0.000000	0.000000	0.000000	0.000000	0.000000	1
41.777081	12.533124	0.000000	0.003986	0.007980	0.000000	0.008920	0.520296	0.000000	0.000000	0.000000	0.000000	0.000000	1
44.886073	12.533124	0.000000	0.010760	0.013632	0.000000	0.017367	-0.347942	0.000000	0.000000	0.000000	0.000000	0.000000	1
47.995066	12.533124	0.000000	0.009555	0.009295	0.000000	0.013330	-1.414077	0.000000	0.000000	0.000000	0.000000	0.000000	1
51.104058	12.533124	0.000000	0.004372	0.001963	0.000000	0.004792	-1.935924	0.000000	0.000000	0.000000	0.000000	0.000000	1
54.213050	12.533124	0.000000	0.002078	-0.027489	0.000000	0.027567	25.851710	0.000000	0.000000	0.000000	0.000000	0.000000	1
57.322042	12.533124	0.000000	-0.044601	-0.001489	0.000000	0.044626	97.802238	0.000000	0.000000	0.000000	0.000000	0.000000	2
60.431034	12.533124	0.000000	-0.305788	0.247605	0.000000	0.393465	138.297851	0.000000	0.000000	0.000000	0.000000	0.000000	1
63.540026	12.533124	0.000000	-0.526914	0.518275	0.000000	0.739086	117.170089	0.000000	0.000000	0.000000	0.000000	0.000000	1
66.649018	12.533124	0.000000	-0.599251	0.788197	0.000000	0.990129	32.335738	0.000000	0.000000	0.000000	0.000000	0.000000	1
69.758010	12.533124	0.000000	-0.652895	0.752965	0.000000	0.996608	-81.071958	0.000000	0.000000	0.000000	0.000000	0.000000	1
72.867002	12.533124	0.000000	-0.582565	0.566416	0.000000	0.812533	-128.307212	0.000000	0.000000	0.000000	0.000000	0.000000	1
75.975994	12.533124	0.000000	-0.238020	0.326046	0.000000	0.403683	-105.469147	0.000000	0.000000	0.000000	0.000000	0.000000	1
79.084987	12.533124	0.000000	-0.105343	0.069886	0.000000	0.126417	-52.321513	0.000000	0.000000	0.000000	0.000000	0.000000	2
82.193979	12.533124	0.000000	-0.063503	0.041577	0.000000	0.075903	-15.351420	0.000000	0.000000	0.000000	0.000000	0.000000	1
85.302971	12.533124	0.000000	-0.056468	0.012174	0.000000	0.057765	-2.213454	0.000000	0.000000	0.000000	0.000000	0.000000	1
88.411963	12.533124	0.000000	-0.021637	-0.004078	0.000000	0.022018	3.576224	0.000000	0.000000	0.000000	0.000000	0.000000	1
91.520955	12.533124	0.000000	-0.020792	0.010704	0.000000	0.023386	2.298497	0.000000	0.000000	0.000000	0.000000	0.000000	1
94.629947	12.533124	0.000000	0.006161	0.022518	0.000000	0.023345	-0.826693	0.000000	0.000000	0.000000	0.000000	0.000000	1
97.738939	12.533124	0.000000	0.016570	0.020000	0.000000	0.025972	1.392588	0.000000	0.000000	0.000000	0.000000	0.000000	1
100.847931	12.533124	0.000000	0.017928	0.021671	0.000000	0.028126	0.660336	0.000000	0.000000	0.000000	0.000000	0.000000	1
103.956923	12.533124	0.000000	0.027789	-0.007670	0.000000	0.028828	-4.824236	0.000000	0.000000	0.000000	0.000000	0.000000	1
107.065915	12.533124	0.000000	0.016055	-0.006319	0.000000	0.017254	-2.575598	0.000000	0.000000	0.000000	0.000000	0.000000	1
110.174908	12.533124	0.000000	-0.002916	0.009908	0.000000	0.010328	0.184003	0.000000	0.000000	0.000000	0.000000	0.000000	1
113.283900	12.533124	0.000000	0.002223	0.012610	0.000000	0.012804	-2.926274	0.000000	0.000000	0.000000	0.000000	0.000000	1
116.392892	12.533124	0.000000	-0.001078	0.000812	0.000000	0.001349	-2.967377	0.000000	0.000000	0.000000	0.000000	0.000000	1
119.501884	12.533124	0.000000	0.000884	0.001621	0.000000	0.001846	-0.213943	0.000000	0.000000	0.000000	0.000000	0.000000	1
122.610876	12.533124	0.000000	0.001426	0.003283	0.000000	0.003579	0.204753	0.000000	0.000000	0.000000	0.000000	0.000000	1
125.719868	12.533124	0.000000	-0.004663	0.007908	0.000000	0.009181	1.553135	0.000000	0.000000	0.000000	0.000000	0.000000	1
128.828860	12.533124	0.000000	-0.010956	0.009800	0.000000	0.014700	1.872575	0.000000	0.000000	0.000000	0.000000	0.000000	1
131.937852	12.533124	0.000000	-0.005957	0.005731	0.000000	0.008266	1.836944	0.000000	0.000000	0.000000	0.000000	0.000000	1
135.046844	12.533124	0.000000	-0.011536	0.011480	0.000000	0.016275	2.020163	0.000000	0.000000	0.000000	0.000000	0.000000	1
138.155836	12.533124	0.000000	-0.011982	0.011977	0.000000	0.016942	1.059889	0.000000	0.000000	0.000000	0.000000	0.000000	1
141.264829	12.533124	0.000000	-0.009837	0.009171	0.000000	0.013449	0.376678	0.000000	0.000000	0.000000	0.000000	0.000000	1
144.373821	12.533124	0.000000	-0.009790	0.009105	0.000000	0.013369	0.121174	0.000000	0.000000	0.000000	0.000000	0.000000	1
147.482813	12.533124	0.000000	-0.007028	0.008443	0.000000	0.010985	0.558031	0.000000	0.000000	0.000000	0.000000	0.000000	1
150.591805	12.533124	0.000000	-0.009705	0.009465	0.000000	0.013556	0.821594	0.000000	0.000000	0.000000	0.000000	0.000000	1
153.700797	12.533124	0.000000	-0.011402	0.009430	0.000000	0.014796	-0.356131	0.000000	0.000000	0.000000	0.000000	0.000000	1
156.809789	12.533124	0.000000	-0.003656	0.005694	0.000000	0.006767	-0.683617	0.000000	0.000000	0.000000	0.000000	0.000000	1
159.918781	12.533124	0.000000	-0.002824	0.005524	0.000000	0.006204	-0.160794	0.000000	0.000000	0.000000	0.000000	0.000000	1
4.469176	15.642117	0.000000	0.010650	0.011651	0.000000	0.015785	3.639495	0.000000	0.000000	0.000000	0.000000	0.000000	1
7.578168	15.642117	0.000000	-0.000661	0.020870	0.000000	0.020880	0.761041	0.000000	0.000000	0.000000	0.000000	0.000000	1
10.687160	15.642117	0.000000	-0.000396	0.011804	0.000000	0.011810	-1.722787	0.000000	0.000000	0.000000	0.000000	0.000000	1
13.796152	15.642117	0.000000	0.002982	0.008694	0.000000	0.009191	-0.621619	0.000000	0.000000	0.000000	0.000000	0.000000	1
16.905145	15.642117	0.000000	0.004199	0.011366	0.000000	0.012117	-0.428583	0.000000	0.000000	0.000000	0.000000	0.000000	1
20.014137	15.642117	0.000000	0.002470	0.008309	0.000000	0.008669	-0.674439	0.000000	0.000000	0.000000	0.000000	0.000000	1
23.123129	15.642117	0.000000	-0.000459	0.006541	0.000000	0.006557	-0.090222	0.000000	0.000000	0.000000	0.000000	0.000000	1
26.232121	15.642117	0.000000	-0.001163	0.008680	0.000000	0.008758	-0.453046	0.000000	0.000000	0.000000	0.000000	0.000000	1
29.341113	15.642117	0.000000	-0.001147	0.006250	0.000000	0.006354	-0.216775	0.000000	0.000000	0.000000	0.000000	0.000000	1
32.450105	15.642117	0.000000	-0.001866	0.005483	0.000000	0.005792	0.897311	0.000000	0.000000	0.000000	0.000000	0.000000	1
35.559097	15.642117	0.000000	0.001257	0.006950	0.000000	0.007063	0.085136	0.000000	0.000000	0.000000	0.000000	0.000000	1
38.668089	15.642117	0.000000	0.003501	0.005896	0.000000	0.006857	0.484091	0.000000	0.000000	0.000000	0.000000	0.000000	1
41.777081	15.642117	0.000000	0.002867	0.009407	0.000000	0.009834	2.689859	0.000000	0.000000	0.000000	0.000000	0.000000	1
44.886073	15.642117	0.000000	0.007979	0.014324	0.000000	0.016397	2.313314	0.000000	0.000000	0.000000	0.000000	0.000000	1
47.995066	15.642117	0.000000	0.004859	0.009953	0.000000	0.011076	0.076685	0.000000	0.000000	0.000000	0.000000	0.000000	1
51.104058	15.642117	0.000000	-0.001895	0.004873	0.000000	0.005228	-1.908068	0.000000	0.000000	0.000000	0.000000	0.000000	1
54.213050	15.642117	0.000000	-0.003705	0.005942	0.000000	0.007003	41.349862	0.000000	0.000000	0.000000	0.000000	0.000000	1
57.322042	15.642117	0.000000	-0.308044	0.263628	0.000000	0.405451	100.371723	0.000000	0.000000	0.000000	0.000000	0.000000	2
60.431034	15.642117	0.000000	-0.622113	0.542710	0.000000	0.825566	76.201071	0.000000	0.000000	0.000000	0.000000	0.000000	1
63.540026	15.642117	0.000000	-0.662300	0.473412	0.000000	0.814100	31.675094	0.000000	0.000000	0.000000	0.000000	0.000000	1
66.649018	15.642117	0.000000	-0.585229	0.467126	0.000000	0.748799	-3.813928	0.000000	0.000000	0.000000	0.000000	0.000000	1
69.758010	15.642117	0.000000	-0.375586	0.509628	0.000000	0.633076	-65.901767	0.000000	0.000000	0.000000	0.000000	0.000000	1
72.867002	15.642117	0.000000	-0.243012	0.345017	0.000000	0.422009	-78.090067	0.000000	0.000000	0.000000	0.000000	0.000000	1
75.975994	15.642117	0.000000	-0.220801	0.267895	0.000000	0.347161	-60.895614	0.000000	0.000000	0.000000	0.000000	0.000000	1
79.084987	15.642117	0.000000	-0.077391	0.104374	0.000000	0.129936	-38.685116	0.000000	0.000000	0.000000	0.000000	0.000000	2
82.193979	15.642117	0.000000	-0.061099	0.077309	0.000000	0.098538	-9.348925	0.000000	0.000000	0.000000	0.000000	0.000000	2
85.302971	15.642117	0.000000	-0.071890	0.059211	0.000000	0.093134	2.011666	0.000000	0.000000	0.000000	0.000000	0.000000	2
88.411963	15.642117	0.000000	-0.045045	0.097058	0.000000	0.107001	5.158207	0.000000	0.000000	0.000000	0.000000	0.000000	1
91.520955	15.642117	0.000000	-0.008038	0.090503	0.000000	0.090860	1.430224	0.000000	0.000000	0.000000	0.000000	0.000000	1
94.629947	15.642117	0.000000	-0.007388	0.089881	0.000000	0.090184	-2.512188	0.000000	0.000000	0.000000	0.000000	0.000000	1
97.738939	15.642117	0.000000	0.001284	0.045481	0.000000	0.045499	-1.944482	0.000000	0.000000	0.000000	0.000000	0.000000	1
100.847931	15.642117	0.000000	0.002248	0.046015	0.000000	0.046070	-2.270950	0.000000	0.000000	0.000000	0.000000	0.000000	1
103.956923	15.642117	0.000000	0.027740	0.010524	0.000000	0.029669	-4.011355	0.000000	0.000000	0.000000	0.000000	0.000000	1
107.065915	15.642117	0.000000	0.022263	0.007447	0.000000	0.023475	-0.776006	0.000000	0.000000	0.000000	0.000000	0.000000	1
110.174908	15.642117	0.000000	-0.003309	0.012841	0.000000	0.013260	-2.053630	0.000000	0.000000	0.000000	0.000000	0.000000	1
113.283900	15.642117	0.000000	0.003298	0.013284	0.000000	0.013687	-2.620801	0.000000	0.000000	0.000000	0.000000	0.000000	1
116.392892	15.642117	0.000000	0.001506	0.003217	0.000000	0.003552	0.268218	0.000000	0.000000	0.000000	0.000000	0.000000	1
119.501884	15.642117	0.000000	-0.003479	0.012842	0.000000	0.013305	0.898588	0.000000	0.000000	0.000000	0.000000	0.000000	1