TITLE = "PIV Result  997 "
VARIABLES = "X (mm)""Y (mm)""Z (mm)""U (m/s)""V (m/s)""W (m/s)""Speed (m/s)""Vorticity""U-std""V-std""W-std""Speed-std""Vorticity-std""Flag"
ZONE T="ZONE 997 "
I= 51 , J= 16 , K= 1 , F=POINT
DT=(DOUBLE DOUBLE DOUBLE DOUBLE DOUBLE DOUBLE DOUBLE DOUBLE DOUBLE DOUBLE DOUBLE DOUBLE DOUBLE DOUBLE)
4.469176	3.206148	0.000000	0.001174	0.004245	0.000000	0.004404	1.080890	0.000000	0.000000	0.000000	0.000000	0.000000	1
7.578168	3.206148	0.000000	0.003309	0.005895	0.000000	0.006760	1.114855	0.000000	0.000000	0.000000	0.000000	0.000000	1
10.687160	3.206148	0.000000	0.003861	0.008657	0.000000	0.009479	0.653550	0.000000	0.000000	0.000000	0.000000	0.000000	1
13.796152	3.206148	0.000000	0.000558	0.007238	0.000000	0.007259	-0.118253	0.000000	0.000000	0.000000	0.000000	0.000000	1
16.905145	3.206148	0.000000	0.000652	0.005358	0.000000	0.005397	0.455780	0.000000	0.000000	0.000000	0.000000	0.000000	1
20.014137	3.206148	0.000000	0.004549	0.009559	0.000000	0.010586	0.496124	0.000000	0.000000	0.000000	0.000000	0.000000	1
23.123129	3.206148	0.000000	0.005515	0.008611	0.000000	0.010226	-0.539654	0.000000	0.000000	0.000000	0.000000	0.000000	1
26.232121	3.206148	0.000000	-0.000569	0.005294	0.000000	0.005325	-0.147322	0.000000	0.000000	0.000000	0.000000	0.000000	1
29.341113	3.206148	0.000000	0.002573	0.006069	0.000000	0.006592	1.507465	0.000000	0.000000	0.000000	0.000000	0.000000	1
32.450105	3.206148	0.000000	0.013639	0.014181	0.000000	0.019675	-0.162999	0.000000	0.000000	0.000000	0.000000	0.000000	1
35.559097	3.206148	0.000000	0.000976	0.004569	0.000000	0.004672	-3.358975	0.000000	0.000000	0.000000	0.000000	0.000000	1
38.668089	3.206148	0.000000	-0.002013	0.002187	0.000000	0.002972	-3.120448	0.000000	0.000000	0.000000	0.000000	0.000000	1
41.777081	3.206148	0.000000	-0.001397	0.000627	0.000000	0.001531	-2.546287	0.000000	0.000000	0.000000	0.000000	0.000000	1
44.886073	3.206148	0.000000	0.002493	0.000987	0.000000	0.002681	-3.022414	0.000000	0.000000	0.000000	0.000000	0.000000	1
47.995066	3.206148	0.000000	0.002913	0.000279	0.000000	0.002926	-2.782360	0.000000	0.000000	0.000000	0.000000	0.000000	1
51.104058	3.206148	0.000000	0.002871	-0.001027	0.000000	0.003049	1.799907	0.000000	0.000000	0.000000	0.000000	0.000000	1
54.213050	3.206148	0.000000	0.007616	-0.001519	0.000000	0.007766	23.895459	0.000000	0.000000	0.000000	0.000000	0.000000	1
57.322042	3.206148	0.000000	-0.028775	-0.000922	0.000000	0.028789	59.728212	0.000000	0.000000	0.000000	0.000000	0.000000	2
60.431034	3.206148	0.000000	-0.141290	0.074384	0.000000	0.159674	104.476100	0.000000	0.000000	0.000000	0.000000	0.000000	2
63.540026	3.206148	0.000000	-0.197547	0.149214	0.000000	0.247568	179.152744	0.000000	0.000000	0.000000	0.000000	0.000000	2
66.649018	3.206148	0.000000	-0.349962	0.422771	0.000000	0.548825	163.474067	0.000000	0.000000	0.000000	0.000000	0.000000	2
69.758010	3.206148	0.000000	-0.858057	0.609816	0.000000	1.052681	43.101689	0.000000	0.000000	0.000000	0.000000	0.000000	2
72.867002	3.206148	0.000000	-1.009770	0.616369	0.000000	1.183024	-72.365144	0.000000	0.000000	0.000000	0.000000	0.000000	1
75.975994	3.206148	0.000000	-0.884931	0.591973	0.000000	1.064675	-160.087924	0.000000	0.000000	0.000000	0.000000	0.000000	1
79.084987	3.206148	0.000000	-0.069988	0.095735	0.000000	0.118589	-97.372415	0.000000	0.000000	0.000000	0.000000	0.000000	1
82.193979	3.206148	0.000000	-0.046060	0.048465	0.000000	0.066861	-11.276155	0.000000	0.000000	0.000000	0.000000	0.000000	1
85.302971	3.206148	0.000000	0.003815	-0.013124	0.000000	0.013668	-8.452922	0.000000	0.000000	0.000000	0.000000	0.000000	1
88.411963	3.206148	0.000000	0.000619	-0.002443	0.000000	0.002520	3.779517	0.000000	0.000000	0.000000	0.000000	0.000000	2
91.520955	3.206148	0.000000	0.001709	0.018775	0.000000	0.018853	5.102055	0.000000	0.000000	0.000000	0.000000	0.000000	2
94.629947	3.206148	0.000000	-0.000488	0.042694	0.000000	0.042697	-2.756799	0.000000	0.000000	0.000000	0.000000	0.000000	2
97.738939	3.206148	0.000000	-0.002685	0.000181	0.000000	0.002691	-4.519080	0.000000	0.000000	0.000000	0.000000	0.000000	1
100.847931	3.206148	0.000000	-0.001622	-0.000365	0.000000	0.001663	-2.073960	0.000000	0.000000	0.000000	0.000000	0.000000	1
103.956923	3.206148	0.000000	-0.003417	-0.000684	0.000000	0.003485	-2.695299	0.000000	0.000000	0.000000	0.000000	0.000000	1
107.065915	3.206148	0.000000	0.005535	-0.001854	0.000000	0.005838	-1.089134	0.000000	0.000000	0.000000	0.000000	0.000000	1
110.174908	3.206148	0.000000	0.002918	-0.000754	0.000000	0.003013	-1.312850	0.000000	0.000000	0.000000	0.000000	0.000000	1
113.283900	3.206148	0.000000	0.000036	0.000767	0.000000	0.000767	-0.483085	0.000000	0.000000	0.000000	0.000000	0.000000	1
116.392892	3.206148	0.000000	0.003352	-0.000278	0.000000	0.003363	2.430338	0.000000	0.000000	0.000000	0.000000	0.000000	1
119.501884	3.206148	0.000000	0.002870	0.000028	0.000000	0.002871	3.287783	0.000000	0.000000	0.000000	0.000000	0.000000	1
122.610876	3.206148	0.000000	0.001607	0.000652	0.000000	0.001734	2.452016	0.000000	0.000000	0.000000	0.000000	0.000000	1
125.719868	3.206148	0.000000	0.001051	0.000006	0.000000	0.001051	2.684978	0.000000	0.000000	0.000000	0.000000	0.000000	1
128.828860	3.206148	0.000000	0.001609	-0.000571	0.000000	0.001707	3.122967	0.000000	0.000000	0.000000	0.000000	0.000000	1
131.937852	3.206148	0.000000	0.000927	-0.000722	0.000000	0.001175	2.508638	0.000000	0.000000	0.000000	0.000000	0.000000	1
135.046844	3.206148	0.000000	0.001254	0.005292	0.000000	0.005439	1.429478	0.000000	0.000000	0.000000	0.000000	0.000000	1
138.155836	3.206148	0.000000	-0.002243	0.004479	0.000000	0.005010	0.811095	0.000000	0.000000	0.000000	0.000000	0.000000	1
141.264829	3.206148	0.000000	-0.002150	0.004311	0.000000	0.004817	2.546225	0.000000	0.000000	0.000000	0.000000	0.000000	1
144.373821	3.206148	0.000000	-0.018738	0.016670	0.000000	0.025080	1.606275	0.000000	0.000000	0.000000	0.000000	0.000000	1
147.482813	3.206148	0.000000	-0.006842	0.011804	0.000000	0.013644	-0.588960	0.000000	0.000000	0.000000	0.000000	0.000000	1
150.591805	3.206148	0.000000	0.001289	0.007143	0.000000	0.007258	0.348992	0.000000	0.000000	0.000000	0.000000	0.000000	1
153.700797	3.206148	0.000000	-0.001664	0.001869	0.000000	0.002503	1.562368	0.000000	0.000000	0.000000	0.000000	0.000000	1
156.809789	3.206148	0.000000	-0.001786	0.004160	0.000000	0.004527	0.976651	0.000000	0.000000	0.000000	0.000000	0.000000	1
159.918781	3.206148	0.000000	0.000248	0.003137	0.000000	0.003147	-0.110801	0.000000	0.000000	0.000000	0.000000	0.000000	1
4.469176	6.315140	0.000000	-0.002639	0.005676	0.000000	0.006259	0.974174	0.000000	0.000000	0.000000	0.000000	0.000000	1
7.578168	6.315140	0.000000	0.003637	0.007262	0.000000	0.008121	1.095103	0.000000	0.000000	0.000000	0.000000	0.000000	1
10.687160	6.315140	0.000000	0.001306	0.009416	0.000000	0.009507	0.577537	0.000000	0.000000	0.000000	0.000000	0.000000	1
13.796152	6.315140	0.000000	-0.000367	0.008339	0.000000	0.008347	-0.472919	0.000000	0.000000	0.000000	0.000000	0.000000	1
16.905145	6.315140	0.000000	0.000617	0.006804	0.000000	0.006832	-0.020885	0.000000	0.000000	0.000000	0.000000	0.000000	1
20.014137	6.315140	0.000000	0.004137	0.010279	0.000000	0.011080	0.553112	0.000000	0.000000	0.000000	0.000000	0.000000	1
23.123129	6.315140	0.000000	0.005045	0.008391	0.000000	0.009791	0.052000	0.000000	0.000000	0.000000	0.000000	0.000000	1
26.232121	6.315140	0.000000	-0.000781	0.006267	0.000000	0.006315	-0.069144	0.000000	0.000000	0.000000	0.000000	0.000000	1
29.341113	6.315140	0.000000	0.001691	0.007325	0.000000	0.007517	1.000198	0.000000	0.000000	0.000000	0.000000	0.000000	1
32.450105	6.315140	0.000000	0.011390	0.011903	0.000000	0.016475	0.678970	0.000000	0.000000	0.000000	0.000000	0.000000	1
35.559097	6.315140	0.000000	0.008813	0.009256	0.000000	0.012780	-1.726345	0.000000	0.000000	0.000000	0.000000	0.000000	1
38.668089	6.315140	0.000000	0.001919	-0.000517	0.000000	0.001987	-3.032200	0.000000	0.000000	0.000000	0.000000	0.000000	1
41.777081	6.315140	0.000000	0.005599	-0.002911	0.000000	0.006311	-3.356021	0.000000	0.000000	0.000000	0.000000	0.000000	1
44.886073	6.315140	0.000000	0.005259	-0.010293	0.000000	0.011559	-3.211724	0.000000	0.000000	0.000000	0.000000	0.000000	1
47.995066	6.315140	0.000000	0.013899	-0.016636	0.000000	0.021678	-1.675056	0.000000	0.000000	0.000000	0.000000	0.000000	1
51.104058	6.315140	0.000000	0.009601	-0.011412	0.000000	0.014914	6.299579	0.000000	0.000000	0.000000	0.000000	0.000000	1
54.213050	6.315140	0.000000	-0.027941	-0.003565	0.000000	0.028168	36.015970	0.000000	0.000000	0.000000	0.000000	0.000000	2
57.322042	6.315140	0.000000	-0.211788	0.038250	0.000000	0.215214	83.030945	0.000000	0.000000	0.000000	0.000000	0.000000	2
60.431034	6.315140	0.000000	-0.253804	0.149214	0.000000	0.294417	142.107108	0.000000	0.000000	0.000000	0.000000	0.000000	2
63.540026	6.315140	0.000000	-0.502377	0.474505	0.000000	0.691041	173.287604	0.000000	0.000000	0.000000	0.000000	0.000000	2
66.649018	6.315140	0.000000	-0.742578	0.913980	0.000000	1.177617	95.423805	0.000000	0.000000	0.000000	0.000000	0.000000	1
69.758010	6.315140	0.000000	-0.973535	0.841326	0.000000	1.286701	-74.373835	0.000000	0.000000	0.000000	0.000000	0.000000	1
72.867002	6.315140	0.000000	-1.039327	0.603263	0.000000	1.201718	-180.288262	0.000000	0.000000	0.000000	0.000000	0.000000	1
75.975994	6.315140	0.000000	-0.409629	0.259945	0.000000	0.485147	-168.322904	0.000000	0.000000	0.000000	0.000000	0.000000	2
79.084987	6.315140	0.000000	-0.087221	0.036857	0.000000	0.094688	-78.100868	0.000000	0.000000	0.000000	0.000000	0.000000	2
82.193979	6.315140	0.000000	-0.040093	0.039332	0.000000	0.056164	-12.770844	0.000000	0.000000	0.000000	0.000000	0.000000	1
85.302971	6.315140	0.000000	0.002621	-0.001007	0.000000	0.002807	-8.119479	0.000000	0.000000	0.000000	0.000000	0.000000	1
88.411963	6.315140	0.000000	0.008042	-0.003879	0.000000	0.008929	2.357952	0.000000	0.000000	0.000000	0.000000	0.000000	1
91.520955	6.315140	0.000000	0.009295	0.035332	0.000000	0.036534	3.746095	0.000000	0.000000	0.000000	0.000000	0.000000	1
94.629947	6.315140	0.000000	0.002798	0.040313	0.000000	0.040410	-1.489846	0.000000	0.000000	0.000000	0.000000	0.000000	1
97.738939	6.315140	0.000000	-0.022839	0.013646	0.000000	0.026605	-4.593365	0.000000	0.000000	0.000000	0.000000	0.000000	1
100.847931	6.315140	0.000000	-0.000163	-0.008391	0.000000	0.008393	-3.487700	0.000000	0.000000	0.000000	0.000000	0.000000	1
103.956923	6.315140	0.000000	0.010730	-0.014370	0.000000	0.017934	-2.103484	0.000000	0.000000	0.000000	0.000000	0.000000	1
107.065915	6.315140	0.000000	0.011129	-0.005073	0.000000	0.012230	-0.836042	0.000000	0.000000	0.000000	0.000000	0.000000	1
110.174908	6.315140	0.000000	0.011594	0.006167	0.000000	0.013132	-1.648085	0.000000	0.000000	0.000000	0.000000	0.000000	1
113.283900	6.315140	0.000000	0.002572	0.001462	0.000000	0.002958	-1.965143	0.000000	0.000000	0.000000	0.000000	0.000000	1
116.392892	6.315140	0.000000	-0.008552	0.001528	0.000000	0.008688	0.197811	0.000000	0.000000	0.000000	0.000000	0.000000	1
119.501884	6.315140	0.000000	-0.008992	-0.000710	0.000000	0.009020	1.630956	0.000000	0.000000	0.000000	0.000000	0.000000	1
122.610876	6.315140	0.000000	-0.003507	0.000742	0.000000	0.003585	1.184024	0.000000	0.000000	0.000000	0.000000	0.000000	1
125.719868	6.315140	0.000000	-0.009567	-0.002904	0.000000	0.009998	1.558062	0.000000	0.000000	0.000000	0.000000	0.000000	1
128.828860	6.315140	0.000000	-0.008106	-0.000710	0.000000	0.008137	2.966942	0.000000	0.000000	0.000000	0.000000	0.000000	1
131.937852	6.315140	0.000000	-0.002619	0.003068	0.000000	0.004034	2.589944	0.000000	0.000000	0.000000	0.000000	0.000000	1
135.046844	6.315140	0.000000	-0.000809	0.005754	0.000000	0.005811	0.956975	0.000000	0.000000	0.000000	0.000000	0.000000	1
138.155836	6.315140	0.000000	-0.003606	0.006608	0.000000	0.007528	0.259235	0.000000	0.000000	0.000000	0.000000	0.000000	1
141.264829	6.315140	0.000000	-0.006908	0.007275	0.000000	0.010032	1.358285	0.000000	0.000000	0.000000	0.000000	0.000000	1
144.373821	6.315140	0.000000	-0.017839	0.016102	0.000000	0.024031	0.066445	0.000000	0.000000	0.000000	0.000000	0.000000	1
147.482813	6.315140	0.000000	-0.011318	0.012322	0.000000	0.016731	-1.809727	0.000000	0.000000	0.000000	0.000000	0.000000	1
150.591805	6.315140	0.000000	-0.002558	0.006406	0.000000	0.006897	-0.364955	0.000000	0.000000	0.000000	0.000000	0.000000	1
153.700797	6.315140	0.000000	-0.009361	0.006730	0.000000	0.011529	1.238705	0.000000	0.000000	0.000000	0.000000	0.000000	1
156.809789	6.315140	0.000000	-0.005310	0.006054	0.000000	0.008052	1.623201	0.000000	0.000000	0.000000	0.000000	0.000000	1
159.918781	6.315140	0.000000	0.000777	0.003393	0.000000	0.003481	1.525771	0.000000	0.000000	0.000000	0.000000	0.000000	1
4.469176	9.424132	0.000000	-0.004678	0.006901	0.000000	0.008337	-0.100671	0.000000	0.000000	0.000000	0.000000	0.000000	1
7.578168	9.424132	0.000000	0.002517	0.007550	0.000000	0.007958	0.355969	0.000000	0.000000	0.000000	0.000000	0.000000	1
10.687160	9.424132	0.000000	-0.001021	0.009927	0.000000	0.009979	0.150128	0.000000	0.000000	0.000000	0.000000	0.000000	1
13.796152	9.424132	0.000000	0.000432	0.007734	0.000000	0.007746	-0.944348	0.000000	0.000000	0.000000	0.000000	0.000000	1
16.905145	9.424132	0.000000	0.004658	0.005559	0.000000	0.007252	-1.142747	0.000000	0.000000	0.000000	0.000000	0.000000	1
20.014137	9.424132	0.000000	0.001172	0.005522	0.000000	0.005646	-0.406855	0.000000	0.000000	0.000000	0.000000	0.000000	1
23.123129	9.424132	0.000000	0.000137	0.004763	0.000000	0.004765	0.266266	0.000000	0.000000	0.000000	0.000000	0.000000	1
26.232121	9.424132	0.000000	0.001618	0.007158	0.000000	0.007338	0.130875	0.000000	0.000000	0.000000	0.000000	0.000000	1
29.341113	9.424132	0.000000	0.002415	0.006556	0.000000	0.006986	0.467209	0.000000	0.000000	0.000000	0.000000	0.000000	1
32.450105	9.424132	0.000000	0.003296	0.003404	0.000000	0.004738	2.418639	0.000000	0.000000	0.000000	0.000000	0.000000	1
35.559097	9.424132	0.000000	0.003524	0.002786	0.000000	0.004492	2.624621	0.000000	0.000000	0.000000	0.000000	0.000000	1
38.668089	9.424132	0.000000	0.007593	0.001661	0.000000	0.007772	-0.343610	0.000000	0.000000	0.000000	0.000000	0.000000	1
41.777081	9.424132	0.000000	0.012890	-0.008309	0.000000	0.015336	-2.032013	0.000000	0.000000	0.000000	0.000000	0.000000	1
44.886073	9.424132	0.000000	0.015293	-0.010081	0.000000	0.018317	-1.293579	0.000000	0.000000	0.000000	0.000000	0.000000	1
47.995066	9.424132	0.000000	0.011985	-0.011436	0.000000	0.016566	0.070545	0.000000	0.000000	0.000000	0.000000	0.000000	1
51.104058	9.424132	0.000000	0.008841	-0.010575	0.000000	0.013784	5.120266	0.000000	0.000000	0.000000	0.000000	0.000000	1
54.213050	9.424132	0.000000	-0.159999	-0.025699	0.000000	0.162050	37.418406	0.000000	0.000000	0.000000	0.000000	0.000000	2
57.322042	9.424132	0.000000	-0.444011	0.041288	0.000000	0.445926	109.842050	0.000000	0.000000	0.000000	0.000000	0.000000	1
60.431034	9.424132	0.000000	-0.496769	0.304418	0.000000	0.582623	178.146524	0.000000	0.000000	0.000000	0.000000	0.000000	1
63.540026	9.424132	0.000000	-0.778401	0.846080	0.000000	1.149678	137.242295	0.000000	0.000000	0.000000	0.000000	0.000000	1
66.649018	9.424132	0.000000	-0.683589	0.885696	0.000000	1.118817	-0.175807	0.000000	0.000000	0.000000	0.000000	0.000000	1
69.758010	9.424132	0.000000	-0.632142	1.003025	0.000000	1.185606	-167.467374	0.000000	0.000000	0.000000	0.000000	0.000000	1
72.867002	9.424132	0.000000	-0.309422	0.282254	0.000000	0.418819	-211.301175	0.000000	0.000000	0.000000	0.000000	0.000000	1
75.975994	9.424132	0.000000	-0.091409	0.119632	0.000000	0.150557	-112.889660	0.000000	0.000000	0.000000	0.000000	0.000000	2
79.084987	9.424132	0.000000	-0.062032	0.044521	0.000000	0.076355	-39.883114	0.000000	0.000000	0.000000	0.000000	0.000000	2
82.193979	9.424132	0.000000	0.001877	0.019212	0.000000	0.019303	-11.830445	0.000000	0.000000	0.000000	0.000000	0.000000	1
85.302971	9.424132	0.000000	0.004318	0.015804	0.000000	0.016383	-4.335573	0.000000	0.000000	0.000000	0.000000	0.000000	1
88.411963	9.424132	0.000000	0.012436	0.015354	0.000000	0.019758	2.944466	0.000000	0.000000	0.000000	0.000000	0.000000	1
91.520955	9.424132	0.000000	0.015385	0.007686	0.000000	0.017198	4.700022	0.000000	0.000000	0.000000	0.000000	0.000000	1
94.629947	9.424132	0.000000	-0.002580	0.012083	0.000000	0.012356	3.209758	0.000000	0.000000	0.000000	0.000000	0.000000	1
97.738939	9.424132	0.000000	-0.012318	0.032457	0.000000	0.034716	-3.261164	0.000000	0.000000	0.000000	0.000000	0.000000	1
100.847931	9.424132	0.000000	0.001214	0.019782	0.000000	0.019820	-6.822985	0.000000	0.000000	0.000000	0.000000	0.000000	1
103.956923	9.424132	0.000000	0.008968	0.011033	0.000000	0.014218	-3.223984	0.000000	0.000000	0.000000	0.000000	0.000000	1
107.065915	9.424132	0.000000	0.021458	0.005848	0.000000	0.022241	0.948532	0.000000	0.000000	0.000000	0.000000	0.000000	1
110.174908	9.424132	0.000000	0.026448	0.016997	0.000000	0.031439	2.746009	0.000000	0.000000	0.000000	0.000000	0.000000	1
113.283900	9.424132	0.000000	0.004039	0.016153	0.000000	0.016650	-0.363283	0.000000	0.000000	0.000000	0.000000	0.000000	1
116.392892	9.424132	0.000000	-0.005499	-0.000391	0.000000	0.005512	-1.339770	0.000000	0.000000	0.000000	0.000000	0.000000	1
119.501884	9.424132	0.000000	-0.006984	0.002605	0.000000	0.007454	0.637538	0.000000	0.000000	0.000000	0.000000	0.000000	1
122.610876	9.424132	0.000000	-0.006449	0.004202	0.000000	0.007697	0.121845	0.000000	0.000000	0.000000	0.000000	0.000000	1
125.719868	9.424132	0.000000	-0.011063	-0.001617	0.000000	0.011181	-0.740318	0.000000	0.000000	0.000000	0.000000	0.000000	1
128.828860	9.424132	0.000000	-0.015452	-0.002265	0.000000	0.015617	0.919101	0.000000	0.000000	0.000000	0.000000	0.000000	1
131.937852	9.424132	0.000000	-0.005382	0.008416	0.000000	0.009990	1.729341	0.000000	0.000000	0.000000	0.000000	0.000000	1
135.046844	9.424132	0.000000	-0.003057	0.009371	0.000000	0.009857	0.743874	0.000000	0.000000	0.000000	0.000000	0.000000	1
138.155836	9.424132	0.000000	-0.003011	0.004239	0.000000	0.005200	0.195389	0.000000	0.000000	0.000000	0.000000	0.000000	1
141.264829	9.424132	0.000000	-0.005240	0.004823	0.000000	0.007122	0.321946	0.000000	0.000000	0.000000	0.000000	0.000000	1
144.373821	9.424132	0.000000	-0.008969	0.009666	0.000000	0.013186	-1.058528	0.000000	0.000000	0.000000	0.000000	0.000000	1
147.482813	9.424132	0.000000	-0.005637	0.006544	0.000000	0.008637	-2.344002	0.000000	0.000000	0.000000	0.000000	0.000000	1
150.591805	9.424132	0.000000	-0.003452	0.001014	0.000000	0.003598	-0.984738	0.000000	0.000000	0.000000	0.000000	0.000000	1
153.700797	9.424132	0.000000	-0.007660	0.004312	0.000000	0.008791	0.469222	0.000000	0.000000	0.000000	0.000000	0.000000	1
156.809789	9.424132	0.000000	-0.012538	0.008025	0.000000	0.014886	1.230902	0.000000	0.000000	0.000000	0.000000	0.000000	1
159.918781	9.424132	0.000000	-0.013435	0.008909	0.000000	0.016121	1.568528	0.000000	0.000000	0.000000	0.000000	0.000000	1
4.469176	12.533124	0.000000	0.000704	0.004468	0.000000	0.004523	-0.670000	0.000000	0.000000	0.000000	0.000000	0.000000	1
7.578168	12.533124	0.000000	0.003736	0.003773	0.000000	0.005310	0.359660	0.000000	0.000000	0.000000	0.000000	0.000000	1
10.687160	12.533124	0.000000	0.003289	0.009052	0.000000	0.009631	1.168352	0.000000	0.000000	0.000000	0.000000	0.000000	1
13.796152	12.533124	0.000000	0.004237	0.014730	0.000000	0.015327	0.042818	0.000000	0.000000	0.000000	0.000000	0.000000	1
16.905145	12.533124	0.000000	0.005993	0.013478	0.000000	0.014750	-1.768186	0.000000	0.000000	0.000000	0.000000	0.000000	1
20.014137	12.533124	0.000000	0.002737	0.002746	0.000000	0.003877	-1.602384	0.000000	0.000000	0.000000	0.000000	0.000000	1
23.123129	12.533124	0.000000	0.001182	0.002076	0.000000	0.002388	-0.135998	0.000000	0.000000	0.000000	0.000000	0.000000	1
26.232121	12.533124	0.000000	0.001470	0.003234	0.000000	0.003553	-0.609336	0.000000	0.000000	0.000000	0.000000	0.000000	1
29.341113	12.533124	0.000000	-0.003672	-0.001912	0.000000	0.004140	-0.975884	0.000000	0.000000	0.000000	0.000000	0.000000	1
32.450105	12.533124	0.000000	-0.013515	-0.016654	0.000000	0.021448	3.258077	0.000000	0.000000	0.000000	0.000000	0.000000	1
35.559097	12.533124	0.000000	-0.006973	-0.007107	0.000000	0.009957	6.201944	0.000000	0.000000	0.000000	0.000000	0.000000	1
38.668089	12.533124	0.000000	-0.001390	0.004744	0.000000	0.004944	3.052408	0.000000	0.000000	0.000000	0.000000	0.000000	1
41.777081	12.533124	0.000000	0.004942	-0.004359	0.000000	0.006590	-0.016171	0.000000	0.000000	0.000000	0.000000	0.000000	1
44.886073	12.533124	0.000000	0.013528	-0.008893	0.000000	0.016189	-0.146126	0.000000	0.000000	0.000000	0.000000	0.000000	1
47.995066	12.533124	0.000000	0.008946	-0.005627	0.000000	0.010568	2.750934	0.000000	0.000000	0.000000	0.000000	0.000000	1
51.104058	12.533124	0.000000	0.007054	-0.009213	0.000000	0.011603	15.444849	0.000000	0.000000	0.000000	0.000000	0.000000	2
54.213050	12.533124	0.000000	-0.166878	-0.011803	0.000000	0.167295	67.396543	0.000000	0.000000	0.000000	0.000000	0.000000	2
57.322042	12.533124	0.000000	-0.394750	0.304686	0.000000	0.498660	102.866037	0.000000	0.000000	0.000000	0.000000	0.000000	2
60.431034	12.533124	0.000000	-0.906509	0.749608	0.000000	1.176295	64.377122	0.000000	0.000000	0.000000	0.000000	0.000000	1
63.540026	12.533124	0.000000	-0.908630	0.795083	0.000000	1.207380	-23.989020	0.000000	0.000000	0.000000	0.000000	0.000000	1
66.649018	12.533124	0.000000	-0.772553	0.740593	0.000000	1.070194	-106.601784	0.000000	0.000000	0.000000	0.000000	0.000000	2
69.758010	12.533124	0.000000	-0.282440	0.334893	0.000000	0.438094	-123.889966	0.000000	0.000000	0.000000	0.000000	0.000000	1
72.867002	12.533124	0.000000	-0.241787	0.242699	0.000000	0.342584	-90.573818	0.000000	0.000000	0.000000	0.000000	0.000000	1
75.975994	12.533124	0.000000	-0.058729	0.064651	0.000000	0.087343	-42.304528	0.000000	0.000000	0.000000	0.000000	0.000000	1
79.084987	12.533124	0.000000	-0.011795	0.051546	0.000000	0.052878	-14.270192	0.000000	0.000000	0.000000	0.000000	0.000000	1
82.193979	12.533124	0.000000	0.006710	0.042685	0.000000	0.043210	-8.596311	0.000000	0.000000	0.000000	0.000000	0.000000	1
85.302971	12.533124	0.000000	0.000699	0.019705	0.000000	0.019717	-3.516079	0.000000	0.000000	0.000000	0.000000	0.000000	1
88.411963	12.533124	0.000000	-0.016211	0.004485	0.000000	0.016820	1.685441	0.000000	0.000000	0.000000	0.000000	0.000000	1
91.520955	12.533124	0.000000	-0.014933	-0.001816	0.000000	0.015043	5.132217	0.000000	0.000000	0.000000	0.000000	0.000000	1
94.629947	12.533124	0.000000	-0.004877	0.003351	0.000000	0.005918	9.848819	0.000000	0.000000	0.000000	0.000000	0.000000	1
97.738939	12.533124	0.000000	0.015923	0.049346	0.000000	0.051851	5.657230	0.000000	0.000000	0.000000	0.000000	0.000000	1
100.847931	12.533124	0.000000	0.019874	0.045432	0.000000	0.049589	-0.614689	0.000000	0.000000	0.000000	0.000000	0.000000	1
103.956923	12.533124	0.000000	0.008393	0.027008	0.000000	0.028283	-1.146207	0.000000	0.000000	0.000000	0.000000	0.000000	1
107.065915	12.533124	0.000000	0.011195	0.005224	0.000000	0.012354	0.649467	0.000000	0.000000	0.000000	0.000000	0.000000	1
110.174908	12.533124	0.000000	-0.001866	0.002469	0.000000	0.003095	4.419487	0.000000	0.000000	0.000000	0.000000	0.000000	1
113.283900	12.533124	0.000000	-0.007217	0.009734	0.000000	0.012118	1.616247	0.000000	0.000000	0.000000	0.000000	0.000000	1
116.392892	12.533124	0.000000	-0.005038	0.003325	0.000000	0.006036	-0.334638	0.000000	0.000000	0.000000	0.000000	0.000000	1
119.501884	12.533124	0.000000	-0.006529	0.005383	0.000000	0.008462	1.125170	0.000000	0.000000	0.000000	0.000000	0.000000	1
122.610876	12.533124	0.000000	-0.010679	0.012051	0.000000	0.016102	0.038393	0.000000	0.000000	0.000000	0.000000	0.000000	1
125.719868	12.533124	0.000000	-0.007906	0.008833	0.000000	0.011854	-1.736825	0.000000	0.000000	0.000000	0.000000	0.000000	1
128.828860	12.533124	0.000000	-0.004827	0.007453	0.000000	0.008880	-0.250068	0.000000	0.000000	0.000000	0.000000	0.000000	1
131.937852	12.533124	0.000000	-0.005575	0.010917	0.000000	0.012258	1.052247	0.000000	0.000000	0.000000	0.000000	0.000000	1
135.046844	12.533124	0.000000	-0.012580	0.006325	0.000000	0.014080	0.152863	0.000000	0.000000	0.000000	0.000000	0.000000	1
138.155836	12.533124	0.000000	-0.006979	0.004364	0.000000	0.008231	0.391623	0.000000	0.000000	0.000000	0.000000	0.000000	1
141.264829	12.533124	0.000000	-0.003771	0.003382	0.000000	0.005065	1.394442	0.000000	0.000000	0.000000	0.000000	0.000000	1
144.373821	12.533124	0.000000	-0.007004	0.005761	0.000000	0.009069	0.346989	0.000000	0.000000	0.000000	0.000000	0.000000	1
147.482813	12.533124	0.000000	-0.003447	0.001244	0.000000	0.003665	-0.650793	0.000000	0.000000	0.000000	0.000000	0.000000	1
150.591805	12.533124	0.000000	-0.003186	0.000408	0.000000	0.003212	-0.396234	0.000000	0.000000	0.000000	0.000000	0.000000	1
153.700797	12.533124	0.000000	-0.002097	0.000684	0.000000	0.002205	0.160841	0.000000	0.000000	0.000000	0.000000	0.000000	1
156.809789	12.533124	0.000000	-0.010564	0.007054	0.000000	0.012702	0.270611	0.000000	0.000000	0.000000	0.000000	0.000000	1
159.918781	12.533124	0.000000	-0.012780	0.008642	0.000000	0.015427	-0.301013	0.000000	0.000000	0.000000	0.000000	0.000000	1
4.469176	15.642117	0.000000	0.001637	0.006788	0.000000	0.006982	0.383053	0.000000	0.000000	0.000000	0.000000	0.000000	1
7.578168	15.642117	0.000000	0.003011	0.006004	0.000000	0.006717	1.641173	0.000000	0.000000	0.000000	0.000000	0.000000	1
10.687160	15.642117	0.000000	0.001265	0.013129	0.000000	0.013190	2.302640	0.000000	0.000000	0.000000	0.000000	0.000000	1
13.796152	15.642117	0.000000	0.001230	0.018832	0.000000	0.018872	0.249442	0.000000	0.000000	0.000000	0.000000	0.000000	1
16.905145	15.642117	0.000000	0.005030	0.013964	0.000000	0.014842	-1.527720	0.000000	0.000000	0.000000	0.000000	0.000000	1
20.014137	15.642117	0.000000	0.003024	0.004427	0.000000	0.005361	-0.714137	0.000000	0.000000	0.000000	0.000000	0.000000	1
23.123129	15.642117	0.000000	0.001673	0.003321	0.000000	0.003718	0.374642	0.000000	0.000000	0.000000	0.000000	0.000000	1
26.232121	15.642117	0.000000	0.000265	0.002001	0.000000	0.002019	-2.297043	0.000000	0.000000	0.000000	0.000000	0.000000	1
29.341113	15.642117	0.000000	-0.012868	-0.022106	0.000000	0.025578	-4.023268	0.000000	0.000000	0.000000	0.000000	0.000000	1
32.450105	15.642117	0.000000	-0.017694	-0.031648	0.000000	0.036258	3.035033	0.000000	0.000000	0.000000	0.000000	0.000000	1
35.559097	15.642117	0.000000	-0.013156	-0.000854	0.000000	0.013183	7.591237	0.000000	0.000000	0.000000	0.000000	0.000000	1
38.668089	15.642117	0.000000	-0.011007	0.008603	0.000000	0.013970	4.042906	0.000000	0.000000	0.000000	0.000000	0.000000	1
41.777081	15.642117	0.000000	-0.007787	0.006109	0.000000	0.009897	-0.488873	0.000000	0.000000	0.000000	0.000000	0.000000	1
44.886073	15.642117	0.000000	0.011399	-0.016631	0.000000	0.020162	3.714176	0.000000	0.000000	0.000000	0.000000	0.000000	1
47.995066	15.642117	0.000000	0.009344	-0.022968	0.000000	0.024796	26.360571	0.000000	0.000000	0.000000	0.000000	0.000000	2
51.104058	15.642117	0.000000	-0.023018	0.011890	0.000000	0.025908	81.614992	0.000000	0.000000	0.000000	0.000000	0.000000	2
54.213050	15.642117	0.000000	-0.215561	0.265872	0.000000	0.342278	132.573356	0.000000	0.000000	0.000000	0.000000	0.000000	2
57.322042	15.642117	0.000000	-0.468117	0.841428	0.000000	0.962878	71.413231	0.000000	0.000000	0.000000	0.000000	0.000000	2
60.431034	15.642117	0.000000	-0.574695	0.789715	0.000000	0.976691	-61.195867	0.000000	0.000000	0.000000	0.000000	0.000000	2
63.540026	15.642117	0.000000	-0.674855	0.580616	0.000000	0.890250	-141.129598	0.000000	0.000000	0.000000	0.000000	0.000000	1
66.649018	15.642117	0.000000	-0.173301	0.269267	0.000000	0.320215	-131.052419	0.000000	0.000000	0.000000	0.000000	0.000000	1
69.758010	15.642117	0.000000	-0.206912	0.242005	0.000000	0.318401	-58.605322	0.000000	0.000000	0.000000	0.000000	0.000000	1
72.867002	15.642117	0.000000	-0.218599	0.238677	0.000000	0.323654	-27.898377	0.000000	0.000000	0.000000	0.000000	0.000000	1
75.975994	15.642117	0.000000	-0.042637	0.068779	0.000000	0.080923	-22.095398	0.000000	0.000000	0.000000	0.000000	0.000000	1
79.084987	15.642117	0.000000	0.003336	0.060254	0.000000	0.060346	-6.090401	0.000000	0.000000	0.000000	0.000000	0.000000	1
82.193979	15.642117	0.000000	0.010384	0.046216	0.000000	0.047368	-9.613862	0.000000	0.000000	0.000000	0.000000	0.000000	1
85.302971	15.642117	0.000000	0.002529	0.019436	0.000000	0.019600	-8.811392	0.000000	0.000000	0.000000	0.000000	0.000000	1
88.411963	15.642117	0.000000	-0.021922	0.009592	0.000000	0.023929	-4.487742	0.000000	0.000000	0.000000	0.000000	0.000000	1
91.520955	15.642117	0.000000	-0.019952	0.006675	0.000000	0.021039	0.474382	0.000000	0.000000	0.000000	0.000000	0.000000	1
94.629947	15.642117	0.000000	-0.022157	0.018171	0.000000	0.028655	11.202337	0.000000	0.000000	0.000000	0.000000	0.000000	1
97.738939	15.642117	0.000000	0.003444	0.065811	0.000000	0.065901	12.746887	0.000000	0.000000	0.000000	0.000000	0.000000	1
100.847931	15.642117	0.000000	-0.011564	0.066186	0.000000	0.067188	6.230880	0.000000	0.000000	0.000000	0.000000	0.000000	1
103.956923	15.642117	0.000000	-0.038704	0.059153	0.000000	0.070690	0.767378	0.000000	0.000000	0.000000	0.000000	0.000000	1
107.065915	15.642117	0.000000	0.004667	0.007112	0.000000	0.008506	-0.519189	0.000000	0.000000	0.000000	0.000000	0.000000	1
110.174908	15.642117	0.000000	-0.003320	0.007397	0.000000	0.008108	1.949921	0.000000	0.000000	0.000000	0.000000	0.000000	1
113.283900	15.642117	0.000000	-0.008030	0.009312	0.000000	0.012296	-0.528818	0.000000	0.000000	0.000000	0.000000	0.000000	1
116.392892	15.642117	0.000000	-0.006517	0.008349	0.000000	0.010592	-0.454227	0.000000	0.000000	0.000000	0.000000	0.000000	1
119.501884	15.642117	0.000000	-0.006759	0.009358	0.000000	0.011543	1.807989	0.000000	0.000000	0.000000	0.000000	0.000000	1