TITLE = "PIV Result  717 "
VARIABLES = "X (mm)""Y (mm)""Z (mm)""U (m/s)""V (m/s)""W (m/s)""Speed (m/s)""Vorticity""U-std""V-std""W-std""Speed-std""Vorticity-std""Flag"
ZONE T="ZONE 717 "
I= 51 , J= 16 , K= 1 , F=POINT
DT=(DOUBLE DOUBLE DOUBLE DOUBLE DOUBLE DOUBLE DOUBLE DOUBLE DOUBLE DOUBLE DOUBLE DOUBLE DOUBLE DOUBLE)
4.469176	3.206148	0.000000	-0.003358	0.006819	0.000000	0.007601	1.465903	0.000000	0.000000	0.000000	0.000000	0.000000	1
7.578168	3.206148	0.000000	0.002750	0.011744	0.000000	0.012062	1.158847	0.000000	0.000000	0.000000	0.000000	0.000000	1
10.687160	3.206148	0.000000	0.002586	0.013816	0.000000	0.014056	-0.252988	0.000000	0.000000	0.000000	0.000000	0.000000	1
13.796152	3.206148	0.000000	0.002728	0.007994	0.000000	0.008447	-0.837768	0.000000	0.000000	0.000000	0.000000	0.000000	1
16.905145	3.206148	0.000000	0.003872	0.007840	0.000000	0.008744	0.284440	0.000000	0.000000	0.000000	0.000000	0.000000	1
20.014137	3.206148	0.000000	0.006799	0.010747	0.000000	0.012717	0.073003	0.000000	0.000000	0.000000	0.000000	0.000000	1
23.123129	3.206148	0.000000	0.004091	0.007309	0.000000	0.008376	0.106608	0.000000	0.000000	0.000000	0.000000	0.000000	1
26.232121	3.206148	0.000000	0.003658	0.009831	0.000000	0.010489	0.493092	0.000000	0.000000	0.000000	0.000000	0.000000	1
29.341113	3.206148	0.000000	0.003078	0.009839	0.000000	0.010309	-0.457550	0.000000	0.000000	0.000000	0.000000	0.000000	1
32.450105	3.206148	0.000000	0.006132	0.007999	0.000000	0.010079	-1.871041	0.000000	0.000000	0.000000	0.000000	0.000000	1
35.559097	3.206148	0.000000	0.001635	-0.000139	0.000000	0.001641	-2.832261	0.000000	0.000000	0.000000	0.000000	0.000000	1
38.668089	3.206148	0.000000	-0.000908	0.000188	0.000000	0.000927	-2.560582	0.000000	0.000000	0.000000	0.000000	0.000000	1
41.777081	3.206148	0.000000	-0.002572	0.000658	0.000000	0.002655	-1.967161	0.000000	0.000000	0.000000	0.000000	0.000000	1
44.886073	3.206148	0.000000	-0.000847	0.000574	0.000000	0.001024	-1.686646	0.000000	0.000000	0.000000	0.000000	0.000000	1
47.995066	3.206148	0.000000	-0.000719	0.000413	0.000000	0.000829	-1.488634	0.000000	0.000000	0.000000	0.000000	0.000000	1
51.104058	3.206148	0.000000	0.001450	-0.000908	0.000000	0.001711	-1.174366	0.000000	0.000000	0.000000	0.000000	0.000000	1
54.213050	3.206148	0.000000	-0.000665	-0.001578	0.000000	0.001712	-2.876536	0.000000	0.000000	0.000000	0.000000	0.000000	1
57.322042	3.206148	0.000000	0.004406	-0.003532	0.000000	0.005647	-7.210836	0.000000	0.000000	0.000000	0.000000	0.000000	1
60.431034	3.206148	0.000000	0.009484	-0.003580	0.000000	0.010137	-3.578923	0.000000	0.000000	0.000000	0.000000	0.000000	1
63.540026	3.206148	0.000000	-0.005092	0.000504	0.000000	0.005117	2.078549	0.000000	0.000000	0.000000	0.000000	0.000000	1
66.649018	3.206148	0.000000	-0.002786	-0.000355	0.000000	0.002809	2.391401	0.000000	0.000000	0.000000	0.000000	0.000000	1
69.758010	3.206148	0.000000	0.000594	-0.000144	0.000000	0.000611	2.561572	0.000000	0.000000	0.000000	0.000000	0.000000	1
72.867002	3.206148	0.000000	0.003986	0.001655	0.000000	0.004315	137.934093	0.000000	0.000000	0.000000	0.000000	0.000000	1
75.975994	3.206148	0.000000	-0.297327	1.137906	0.000000	1.176110	171.317228	0.000000	0.000000	0.000000	0.000000	0.000000	2
79.084987	3.206148	0.000000	-0.336637	1.364863	0.000000	1.405765	3.596954	0.000000	0.000000	0.000000	0.000000	0.000000	1
82.193979	3.206148	0.000000	-0.293601	1.325642	0.000000	1.357766	-172.553863	0.000000	0.000000	0.000000	0.000000	0.000000	1
85.302971	3.206148	0.000000	-0.202973	0.395286	0.000000	0.444352	-186.696377	0.000000	0.000000	0.000000	0.000000	0.000000	1
88.411963	3.206148	0.000000	-0.185715	0.268921	0.000000	0.326816	-89.275558	0.000000	0.000000	0.000000	0.000000	0.000000	1
91.520955	3.206148	0.000000	-0.064022	0.170458	0.000000	0.182084	-70.183488	0.000000	0.000000	0.000000	0.000000	0.000000	2
94.629947	3.206148	0.000000	-0.046778	0.052584	0.000000	0.070379	-33.455348	0.000000	0.000000	0.000000	0.000000	0.000000	1
97.738939	3.206148	0.000000	0.014035	0.024612	0.000000	0.028332	-18.421645	0.000000	0.000000	0.000000	0.000000	0.000000	2
100.847931	3.206148	0.000000	0.027847	-0.005274	0.000000	0.028342	-24.717635	0.000000	0.000000	0.000000	0.000000	0.000000	1
103.956923	3.206148	0.000000	0.064221	0.000493	0.000000	0.064222	-18.717058	0.000000	0.000000	0.000000	0.000000	0.000000	2
107.065915	3.206148	0.000000	0.013950	0.001236	0.000000	0.014004	-7.622334	0.000000	0.000000	0.000000	0.000000	0.000000	1
110.174908	3.206148	0.000000	-0.002481	-0.000536	0.000000	0.002538	-2.493714	0.000000	0.000000	0.000000	0.000000	0.000000	1
113.283900	3.206148	0.000000	-0.003019	-0.002049	0.000000	0.003648	0.773070	0.000000	0.000000	0.000000	0.000000	0.000000	1
116.392892	3.206148	0.000000	-0.002268	-0.000576	0.000000	0.002340	1.156311	0.000000	0.000000	0.000000	0.000000	0.000000	1
119.501884	3.206148	0.000000	-0.001939	0.001179	0.000000	0.002269	1.165477	0.000000	0.000000	0.000000	0.000000	0.000000	1
122.610876	3.206148	0.000000	-0.004271	0.000293	0.000000	0.004282	0.479928	0.000000	0.000000	0.000000	0.000000	0.000000	1
125.719868	3.206148	0.000000	-0.003785	-0.000930	0.000000	0.003898	0.312495	0.000000	0.000000	0.000000	0.000000	0.000000	1
128.828860	3.206148	0.000000	0.000378	-0.001104	0.000000	0.001167	0.622107	0.000000	0.000000	0.000000	0.000000	0.000000	1
131.937852	3.206148	0.000000	-0.001303	-0.001291	0.000000	0.001834	0.428137	0.000000	0.000000	0.000000	0.000000	0.000000	1
135.046844	3.206148	0.000000	-0.006295	0.007295	0.000000	0.009636	-0.785871	0.000000	0.000000	0.000000	0.000000	0.000000	1
138.155836	3.206148	0.000000	-0.008485	0.008688	0.000000	0.012144	-1.716564	0.000000	0.000000	0.000000	0.000000	0.000000	1
141.264829	3.206148	0.000000	-0.002655	0.003689	0.000000	0.004546	-0.853071	0.000000	0.000000	0.000000	0.000000	0.000000	1
144.373821	3.206148	0.000000	-0.006927	0.006924	0.000000	0.009795	1.883980	0.000000	0.000000	0.000000	0.000000	0.000000	1
147.482813	3.206148	0.000000	-0.011387	0.015916	0.000000	0.019570	2.459394	0.000000	0.000000	0.000000	0.000000	0.000000	1
150.591805	3.206148	0.000000	-0.010946	0.016166	0.000000	0.019523	-1.384883	0.000000	0.000000	0.000000	0.000000	0.000000	1
153.700797	3.206148	0.000000	-0.005863	0.006370	0.000000	0.008658	-2.233688	0.000000	0.000000	0.000000	0.000000	0.000000	1
156.809789	3.206148	0.000000	-0.004665	0.004051	0.000000	0.006178	0.287495	0.000000	0.000000	0.000000	0.000000	0.000000	1
159.918781	3.206148	0.000000	-0.004388	0.006373	0.000000	0.007738	1.080592	0.000000	0.000000	0.000000	0.000000	0.000000	1
4.469176	6.315140	0.000000	-0.003035	0.007566	0.000000	0.008152	0.735174	0.000000	0.000000	0.000000	0.000000	0.000000	1
7.578168	6.315140	0.000000	0.001220	0.010549	0.000000	0.010619	0.887769	0.000000	0.000000	0.000000	0.000000	0.000000	1
10.687160	6.315140	0.000000	0.000869	0.010527	0.000000	0.010563	0.054077	0.000000	0.000000	0.000000	0.000000	0.000000	1
13.796152	6.315140	0.000000	0.002911	0.006373	0.000000	0.007006	-0.725470	0.000000	0.000000	0.000000	0.000000	0.000000	1
16.905145	6.315140	0.000000	0.003697	0.004559	0.000000	0.005869	0.108192	0.000000	0.000000	0.000000	0.000000	0.000000	1
20.014137	6.315140	0.000000	0.005324	0.005514	0.000000	0.007665	0.518791	0.000000	0.000000	0.000000	0.000000	0.000000	1
23.123129	6.315140	0.000000	0.005214	0.003995	0.000000	0.006568	0.815678	0.000000	0.000000	0.000000	0.000000	0.000000	1
26.232121	6.315140	0.000000	0.003834	0.008703	0.000000	0.009510	0.837162	0.000000	0.000000	0.000000	0.000000	0.000000	1
29.341113	6.315140	0.000000	0.004352	0.010346	0.000000	0.011224	-0.136936	0.000000	0.000000	0.000000	0.000000	0.000000	1
32.450105	6.315140	0.000000	0.008007	0.009444	0.000000	0.012381	-0.858171	0.000000	0.000000	0.000000	0.000000	0.000000	1
35.559097	6.315140	0.000000	0.009875	0.010320	0.000000	0.014283	-1.327103	0.000000	0.000000	0.000000	0.000000	0.000000	1
38.668089	6.315140	0.000000	0.004876	0.006172	0.000000	0.007866	-1.213004	0.000000	0.000000	0.000000	0.000000	0.000000	1
41.777081	6.315140	0.000000	0.001946	0.002005	0.000000	0.002794	-0.988986	0.000000	0.000000	0.000000	0.000000	0.000000	1
44.886073	6.315140	0.000000	0.003018	0.000007	0.000000	0.003018	-1.462997	0.000000	0.000000	0.000000	0.000000	0.000000	1
47.995066	6.315140	0.000000	0.005575	-0.000181	0.000000	0.005578	-1.258180	0.000000	0.000000	0.000000	0.000000	0.000000	1
51.104058	6.315140	0.000000	0.003432	0.001413	0.000000	0.003711	-0.772287	0.000000	0.000000	0.000000	0.000000	0.000000	1
54.213050	6.315140	0.000000	0.003639	0.001766	0.000000	0.004045	-1.255203	0.000000	0.000000	0.000000	0.000000	0.000000	1
57.322042	6.315140	0.000000	0.022655	-0.002897	0.000000	0.022840	-3.019770	0.000000	0.000000	0.000000	0.000000	0.000000	2
60.431034	6.315140	0.000000	0.029989	-0.024597	0.000000	0.038786	1.674947	0.000000	0.000000	0.000000	0.000000	0.000000	1
63.540026	6.315140	0.000000	-0.011195	0.001716	0.000000	0.011326	3.918093	0.000000	0.000000	0.000000	0.000000	0.000000	1
66.649018	6.315140	0.000000	-0.015290	-0.006178	0.000000	0.016491	1.195015	0.000000	0.000000	0.000000	0.000000	0.000000	1
69.758010	6.315140	0.000000	-0.000783	-0.000384	0.000000	0.000872	3.478236	0.000000	0.000000	0.000000	0.000000	0.000000	1
72.867002	6.315140	0.000000	0.000112	0.004536	0.000000	0.004537	109.280097	0.000000	0.000000	0.000000	0.000000	0.000000	1
75.975994	6.315140	0.000000	-0.092448	0.772668	0.000000	0.778179	173.086036	0.000000	0.000000	0.000000	0.000000	0.000000	2
79.084987	6.315140	0.000000	-0.173478	1.340871	0.000000	1.352047	29.970011	0.000000	0.000000	0.000000	0.000000	0.000000	2
82.193979	6.315140	0.000000	-0.169971	1.284491	0.000000	1.295688	-159.254406	0.000000	0.000000	0.000000	0.000000	0.000000	1
85.302971	6.315140	0.000000	-0.112366	0.665596	0.000000	0.675014	-172.750934	0.000000	0.000000	0.000000	0.000000	0.000000	1
88.411963	6.315140	0.000000	-0.028004	0.482013	0.000000	0.482826	-96.859516	0.000000	0.000000	0.000000	0.000000	0.000000	1
91.520955	6.315140	0.000000	-0.038982	0.211263	0.000000	0.214830	-76.309404	0.000000	0.000000	0.000000	0.000000	0.000000	1
94.629947	6.315140	0.000000	-0.013169	0.066949	0.000000	0.068232	-39.898315	0.000000	0.000000	0.000000	0.000000	0.000000	2
97.738939	6.315140	0.000000	0.037403	0.056686	0.000000	0.067914	-16.877494	0.000000	0.000000	0.000000	0.000000	0.000000	2
100.847931	6.315140	0.000000	0.102310	0.050525	0.000000	0.114106	-17.825746	0.000000	0.000000	0.000000	0.000000	0.000000	2
103.956923	6.315140	0.000000	0.098148	-0.020361	0.000000	0.100237	-16.233778	0.000000	0.000000	0.000000	0.000000	0.000000	2
107.065915	6.315140	0.000000	0.060780	0.000398	0.000000	0.060782	-8.445245	0.000000	0.000000	0.000000	0.000000	0.000000	2
110.174908	6.315140	0.000000	-0.004827	0.011119	0.000000	0.012122	-4.608311	0.000000	0.000000	0.000000	0.000000	0.000000	1
113.283900	6.315140	0.000000	-0.010116	0.007713	0.000000	0.012721	-0.861460	0.000000	0.000000	0.000000	0.000000	0.000000	1
116.392892	6.315140	0.000000	-0.005181	0.001319	0.000000	0.005347	0.196568	0.000000	0.000000	0.000000	0.000000	0.000000	1
119.501884	6.315140	0.000000	-0.007644	0.000236	0.000000	0.007647	0.373516	0.000000	0.000000	0.000000	0.000000	0.000000	1
122.610876	6.315140	0.000000	-0.006052	-0.001159	0.000000	0.006162	0.176847	0.000000	0.000000	0.000000	0.000000	0.000000	1
125.719868	6.315140	0.000000	-0.004135	-0.001301	0.000000	0.004335	0.586388	0.000000	0.000000	0.000000	0.000000	0.000000	1
128.828860	6.315140	0.000000	-0.001993	-0.000725	0.000000	0.002121	1.242991	0.000000	0.000000	0.000000	0.000000	0.000000	1
131.937852	6.315140	0.000000	0.000499	0.003508	0.000000	0.003543	0.654330	0.000000	0.000000	0.000000	0.000000	0.000000	1
135.046844	6.315140	0.000000	-0.000828	0.002900	0.000000	0.003016	-0.702173	0.000000	0.000000	0.000000	0.000000	0.000000	1
138.155836	6.315140	0.000000	-0.002002	0.002974	0.000000	0.003585	-0.837059	0.000000	0.000000	0.000000	0.000000	0.000000	1
141.264829	6.315140	0.000000	-0.001374	0.004872	0.000000	0.005062	-0.273173	0.000000	0.000000	0.000000	0.000000	0.000000	1
144.373821	6.315140	0.000000	-0.005155	0.004946	0.000000	0.007144	1.356678	0.000000	0.000000	0.000000	0.000000	0.000000	1
147.482813	6.315140	0.000000	-0.013157	0.019130	0.000000	0.023217	0.824804	0.000000	0.000000	0.000000	0.000000	0.000000	1
150.591805	6.315140	0.000000	-0.014484	0.020984	0.000000	0.025498	-2.525519	0.000000	0.000000	0.000000	0.000000	0.000000	1
153.700797	6.315140	0.000000	-0.003874	0.004596	0.000000	0.006011	-2.108171	0.000000	0.000000	0.000000	0.000000	0.000000	1
156.809789	6.315140	0.000000	-0.005211	0.005213	0.000000	0.007371	0.373046	0.000000	0.000000	0.000000	0.000000	0.000000	1
159.918781	6.315140	0.000000	-0.006549	0.006902	0.000000	0.009515	0.868226	0.000000	0.000000	0.000000	0.000000	0.000000	1
4.469176	9.424132	0.000000	0.004487	0.007385	0.000000	0.008641	-1.022934	0.000000	0.000000	0.000000	0.000000	0.000000	1
7.578168	9.424132	0.000000	-0.003403	0.007329	0.000000	0.008080	-0.762538	0.000000	0.000000	0.000000	0.000000	0.000000	1
10.687160	9.424132	0.000000	-0.002899	0.006602	0.000000	0.007210	-0.645497	0.000000	0.000000	0.000000	0.000000	0.000000	1
13.796152	9.424132	0.000000	0.004749	0.005675	0.000000	0.007400	-0.501047	0.000000	0.000000	0.000000	0.000000	0.000000	1
16.905145	9.424132	0.000000	0.005016	0.006172	0.000000	0.007953	-0.100551	0.000000	0.000000	0.000000	0.000000	0.000000	1
20.014137	9.424132	0.000000	0.000134	0.004975	0.000000	0.004976	0.177473	0.000000	0.000000	0.000000	0.000000	0.000000	1
23.123129	9.424132	0.000000	0.000275	0.004732	0.000000	0.004740	0.534456	0.000000	0.000000	0.000000	0.000000	0.000000	1
26.232121	9.424132	0.000000	0.003742	0.005587	0.000000	0.006725	0.451891	0.000000	0.000000	0.000000	0.000000	0.000000	1
29.341113	9.424132	0.000000	0.004969	0.008564	0.000000	0.009901	0.182109	0.000000	0.000000	0.000000	0.000000	0.000000	1
32.450105	9.424132	0.000000	0.008079	0.008346	0.000000	0.011616	1.009213	0.000000	0.000000	0.000000	0.000000	0.000000	1
35.559097	9.424132	0.000000	0.008802	0.010204	0.000000	0.013476	1.303930	0.000000	0.000000	0.000000	0.000000	0.000000	1
38.668089	9.424132	0.000000	0.000963	0.007845	0.000000	0.007904	0.792593	0.000000	0.000000	0.000000	0.000000	0.000000	1
41.777081	9.424132	0.000000	0.002484	0.011831	0.000000	0.012089	0.334711	0.000000	0.000000	0.000000	0.000000	0.000000	1
44.886073	9.424132	0.000000	0.003959	0.011979	0.000000	0.012617	-0.213138	0.000000	0.000000	0.000000	0.000000	0.000000	1
47.995066	9.424132	0.000000	0.008591	0.004040	0.000000	0.009494	0.134385	0.000000	0.000000	0.000000	0.000000	0.000000	1
51.104058	9.424132	0.000000	0.004672	0.006005	0.000000	0.007608	0.150864	0.000000	0.000000	0.000000	0.000000	0.000000	1
54.213050	9.424132	0.000000	0.006731	0.006076	0.000000	0.009068	0.407184	0.000000	0.000000	0.000000	0.000000	0.000000	1
57.322042	9.424132	0.000000	0.011589	0.011226	0.000000	0.016135	-1.566372	0.000000	0.000000	0.000000	0.000000	0.000000	1
60.431034	9.424132	0.000000	-0.005115	-0.007138	0.000000	0.008781	-0.072843	0.000000	0.000000	0.000000	0.000000	0.000000	1
63.540026	9.424132	0.000000	-0.015471	0.007231	0.000000	0.017077	1.865200	0.000000	0.000000	0.000000	0.000000	0.000000	1
66.649018	9.424132	0.000000	-0.017096	0.000585	0.000000	0.017106	0.407236	0.000000	0.000000	0.000000	0.000000	0.000000	1
69.758010	9.424132	0.000000	-0.011194	-0.008984	0.000000	0.014353	4.061694	0.000000	0.000000	0.000000	0.000000	0.000000	1
72.867002	9.424132	0.000000	-0.008189	0.013599	0.000000	0.015874	56.250045	0.000000	0.000000	0.000000	0.000000	0.000000	1
75.975994	9.424132	0.000000	-0.011139	0.274928	0.000000	0.275154	171.647905	0.000000	0.000000	0.000000	0.000000	0.000000	2
79.084987	9.424132	0.000000	0.011354	1.190907	0.000000	1.190962	106.005877	0.000000	0.000000	0.000000	0.000000	0.000000	2
82.193979	9.424132	0.000000	0.054018	1.138750	0.000000	1.140030	-108.761726	0.000000	0.000000	0.000000	0.000000	0.000000	2
85.302971	9.424132	0.000000	0.033179	0.829443	0.000000	0.830107	-136.636539	0.000000	0.000000	0.000000	0.000000	0.000000	2
88.411963	9.424132	0.000000	0.020433	0.529840	0.000000	0.530234	-92.658920	0.000000	0.000000	0.000000	0.000000	0.000000	2
91.520955	9.424132	0.000000	0.041219	0.307537	0.000000	0.310287	-89.717022	0.000000	0.000000	0.000000	0.000000	0.000000	2
94.629947	9.424132	0.000000	0.032228	0.173973	0.000000	0.176933	-52.700717	0.000000	0.000000	0.000000	0.000000	0.000000	2
97.738939	9.424132	0.000000	0.051550	0.070956	0.000000	0.087705	-13.171513	0.000000	0.000000	0.000000	0.000000	0.000000	2
100.847931	9.424132	0.000000	0.118566	0.089660	0.000000	0.148650	-7.589402	0.000000	0.000000	0.000000	0.000000	0.000000	2
103.956923	9.424132	0.000000	0.106341	0.066883	0.000000	0.125626	-22.447044	0.000000	0.000000	0.000000	0.000000	0.000000	2
107.065915	9.424132	0.000000	0.092889	0.033538	0.000000	0.098758	-18.062456	0.000000	0.000000	0.000000	0.000000	0.000000	2
110.174908	9.424132	0.000000	0.025231	0.022613	0.000000	0.033882	-5.521410	0.000000	0.000000	0.000000	0.000000	0.000000	1
113.283900	9.424132	0.000000	-0.022118	0.022840	0.000000	0.031794	-1.392732	0.000000	0.000000	0.000000	0.000000	0.000000	1
116.392892	9.424132	0.000000	-0.005270	0.007338	0.000000	0.009035	-0.314785	0.000000	0.000000	0.000000	0.000000	0.000000	1
119.501884	9.424132	0.000000	-0.013792	0.002497	0.000000	0.014016	0.607272	0.000000	0.000000	0.000000	0.000000	0.000000	1
122.610876	9.424132	0.000000	-0.006179	-0.007900	0.000000	0.010030	1.010342	0.000000	0.000000	0.000000	0.000000	0.000000	1
125.719868	9.424132	0.000000	-0.006179	-0.005982	0.000000	0.008601	1.426935	0.000000	0.000000	0.000000	0.000000	0.000000	1
128.828860	9.424132	0.000000	-0.002285	-0.002144	0.000000	0.003133	2.105579	0.000000	0.000000	0.000000	0.000000	0.000000	1
131.937852	9.424132	0.000000	0.000718	0.009978	0.000000	0.010004	1.483165	0.000000	0.000000	0.000000	0.000000	0.000000	1
135.046844	9.424132	0.000000	-0.000893	0.005263	0.000000	0.005338	0.211198	0.000000	0.000000	0.000000	0.000000	0.000000	1
138.155836	9.424132	0.000000	-0.001898	0.003016	0.000000	0.003563	0.864964	0.000000	0.000000	0.000000	0.000000	0.000000	1
141.264829	9.424132	0.000000	-0.001286	0.004051	0.000000	0.004251	0.680858	0.000000	0.000000	0.000000	0.000000	0.000000	1
144.373821	9.424132	0.000000	-0.004823	0.005471	0.000000	0.007293	1.073315	0.000000	0.000000	0.000000	0.000000	0.000000	1
147.482813	9.424132	0.000000	-0.006836	0.007180	0.000000	0.009914	0.584160	0.000000	0.000000	0.000000	0.000000	0.000000	1
150.591805	9.424132	0.000000	-0.004872	0.001948	0.000000	0.005247	-0.982126	0.000000	0.000000	0.000000	0.000000	0.000000	1
153.700797	9.424132	0.000000	-0.002317	0.003224	0.000000	0.003970	-0.262417	0.000000	0.000000	0.000000	0.000000	0.000000	1
156.809789	9.424132	0.000000	-0.005450	0.005549	0.000000	0.007778	0.149228	0.000000	0.000000	0.000000	0.000000	0.000000	1
159.918781	9.424132	0.000000	-0.007714	0.006534	0.000000	0.010110	-0.360893	0.000000	0.000000	0.000000	0.000000	0.000000	1
4.469176	12.533124	0.000000	0.006503	0.008793	0.000000	0.010936	-1.114899	0.000000	0.000000	0.000000	0.000000	0.000000	1
7.578168	12.533124	0.000000	0.004379	0.005897	0.000000	0.007345	-1.025286	0.000000	0.000000	0.000000	0.000000	0.000000	1
10.687160	12.533124	0.000000	0.003021	0.006439	0.000000	0.007113	-0.684936	0.000000	0.000000	0.000000	0.000000	0.000000	1
13.796152	12.533124	0.000000	0.003945	0.005822	0.000000	0.007033	0.299389	0.000000	0.000000	0.000000	0.000000	0.000000	1
16.905145	12.533124	0.000000	0.006007	0.007336	0.000000	0.009482	0.662357	0.000000	0.000000	0.000000	0.000000	0.000000	1
20.014137	12.533124	0.000000	0.002444	0.008357	0.000000	0.008707	-0.663836	0.000000	0.000000	0.000000	0.000000	0.000000	1
23.123129	12.533124	0.000000	0.001617	0.008148	0.000000	0.008306	-1.402333	0.000000	0.000000	0.000000	0.000000	0.000000	1
26.232121	12.533124	0.000000	0.006420	0.009747	0.000000	0.011671	-0.493751	0.000000	0.000000	0.000000	0.000000	0.000000	1
29.341113	12.533124	0.000000	0.004456	0.007050	0.000000	0.008340	0.281466	0.000000	0.000000	0.000000	0.000000	0.000000	1
32.450105	12.533124	0.000000	-0.000113	0.002692	0.000000	0.002695	1.961585	0.000000	0.000000	0.000000	0.000000	0.000000	1
35.559097	12.533124	0.000000	-0.001174	0.001712	0.000000	0.002076	3.871131	0.000000	0.000000	0.000000	0.000000	0.000000	1
38.668089	12.533124	0.000000	0.002920	0.007221	0.000000	0.007789	4.471337	0.000000	0.000000	0.000000	0.000000	0.000000	1
41.777081	12.533124	0.000000	0.004798	0.014376	0.000000	0.015155	1.791252	0.000000	0.000000	0.000000	0.000000	0.000000	1
44.886073	12.533124	0.000000	0.000992	0.015163	0.000000	0.015196	0.280115	0.000000	0.000000	0.000000	0.000000	0.000000	1
47.995066	12.533124	0.000000	-0.002221	0.017845	0.000000	0.017982	0.744622	0.000000	0.000000	0.000000	0.000000	0.000000	1
51.104058	12.533124	0.000000	0.005041	0.013038	0.000000	0.013979	1.121101	0.000000	0.000000	0.000000	0.000000	0.000000	1
54.213050	12.533124	0.000000	0.007654	0.015014	0.000000	0.016852	2.652495	0.000000	0.000000	0.000000	0.000000	0.000000	1
57.322042	12.533124	0.000000	0.011535	0.015552	0.000000	0.019363	-3.043514	0.000000	0.000000	0.000000	0.000000	0.000000	1
60.431034	12.533124	0.000000	0.012049	-0.007320	0.000000	0.014098	-6.804441	0.000000	0.000000	0.000000	0.000000	0.000000	2
63.540026	12.533124	0.000000	-0.003365	-0.022053	0.000000	0.022309	-1.400139	0.000000	0.000000	0.000000	0.000000	0.000000	1
66.649018	12.533124	0.000000	-0.004052	0.014166	0.000000	0.014734	2.759177	0.000000	0.000000	0.000000	0.000000	0.000000	1
69.758010	12.533124	0.000000	-0.020604	0.033091	0.000000	0.038981	4.170423	0.000000	0.000000	0.000000	0.000000	0.000000	1
72.867002	12.533124	0.000000	-0.020343	0.029588	0.000000	0.035907	21.805729	0.000000	0.000000	0.000000	0.000000	0.000000	1
75.975994	12.533124	0.000000	-0.007925	0.115058	0.000000	0.115331	143.902099	0.000000	0.000000	0.000000	0.000000	0.000000	2
79.084987	12.533124	0.000000	0.053125	0.983056	0.000000	0.984490	129.659853	0.000000	0.000000	0.000000	0.000000	0.000000	2
82.193979	12.533124	0.000000	0.214754	1.434625	0.000000	1.450610	-67.767073	0.000000	0.000000	0.000000	0.000000	0.000000	1
85.302971	12.533124	0.000000	0.109695	0.894253	0.000000	0.900956	-81.549986	0.000000	0.000000	0.000000	0.000000	0.000000	2
88.411963	12.533124	0.000000	0.060311	0.973660	0.000000	0.975527	-66.309170	0.000000	0.000000	0.000000	0.000000	0.000000	1
91.520955	12.533124	0.000000	0.042912	0.568370	0.000000	0.569988	-106.413244	0.000000	0.000000	0.000000	0.000000	0.000000	2
94.629947	12.533124	0.000000	0.045227	0.179515	0.000000	0.185124	-62.294718	0.000000	0.000000	0.000000	0.000000	0.000000	2
97.738939	12.533124	0.000000	0.084522	0.131142	0.000000	0.156020	-13.919170	0.000000	0.000000	0.000000	0.000000	0.000000	2
100.847931	12.533124	0.000000	0.155241	0.242528	0.000000	0.287958	-14.368855	0.000000	0.000000	0.000000	0.000000	0.000000	1
103.956923	12.533124	0.000000	0.163903	0.246307	0.000000	0.295857	-40.466081	0.000000	0.000000	0.000000	0.000000	0.000000	2
107.065915	12.533124	0.000000	0.121044	0.091301	0.000000	0.151617	-40.564247	0.000000	0.000000	0.000000	0.000000	0.000000	2
110.174908	12.533124	0.000000	0.029252	0.074479	0.000000	0.080017	-23.778158	0.000000	0.000000	0.000000	0.000000	0.000000	1
113.283900	12.533124	0.000000	-0.025748	0.080843	0.000000	0.084845	-14.725431	0.000000	0.000000	0.000000	0.000000	0.000000	2
116.392892	12.533124	0.000000	-0.049856	0.038329	0.000000	0.062886	-7.160347	0.000000	0.000000	0.000000	0.000000	0.000000	2
119.501884	12.533124	0.000000	-0.026595	-0.002757	0.000000	0.026737	-2.409188	0.000000	0.000000	0.000000	0.000000	0.000000	1
122.610876	12.533124	0.000000	-0.018156	-0.008294	0.000000	0.019961	1.414285	0.000000	0.000000	0.000000	0.000000	0.000000	1
125.719868	12.533124	0.000000	-0.004366	-0.002522	0.000000	0.005042	3.165956	0.000000	0.000000	0.000000	0.000000	0.000000	1
128.828860	12.533124	0.000000	-0.006192	-0.001517	0.000000	0.006375	2.528462	0.000000	0.000000	0.000000	0.000000	0.000000	1
131.937852	12.533124	0.000000	-0.002857	0.001130	0.000000	0.003072	1.349792	0.000000	0.000000	0.000000	0.000000	0.000000	1
135.046844	12.533124	0.000000	-0.005510	0.001339	0.000000	0.005671	0.651910	0.000000	0.000000	0.000000	0.000000	0.000000	1
138.155836	12.533124	0.000000	-0.008256	0.001868	0.000000	0.008464	1.146232	0.000000	0.000000	0.000000	0.000000	0.000000	1
141.264829	12.533124	0.000000	-0.004030	0.003458	0.000000	0.005311	0.970811	0.000000	0.000000	0.000000	0.000000	0.000000	1
144.373821	12.533124	0.000000	-0.002685	0.002825	0.000000	0.003897	1.443554	0.000000	0.000000	0.000000	0.000000	0.000000	1
147.482813	12.533124	0.000000	-0.014711	0.010368	0.000000	0.017997	1.635838	0.000000	0.000000	0.000000	0.000000	0.000000	1
150.591805	12.533124	0.000000	-0.012556	0.009652	0.000000	0.015837	-0.519266	0.000000	0.000000	0.000000	0.000000	0.000000	1
153.700797	12.533124	0.000000	-0.007414	0.007149	0.000000	0.010300	-1.225311	0.000000	0.000000	0.000000	0.000000	0.000000	1
156.809789	12.533124	0.000000	-0.004584	0.007167	0.000000	0.008508	-0.502368	0.000000	0.000000	0.000000	0.000000	0.000000	1
159.918781	12.533124	0.000000	-0.001444	0.004752	0.000000	0.004967	-0.486382	0.000000	0.000000	0.000000	0.000000	0.000000	1
4.469176	15.642117	0.000000	0.004819	0.006177	0.000000	0.007835	0.235544	0.000000	0.000000	0.000000	0.000000	0.000000	1
7.578168	15.642117	0.000000	0.003717	0.005611	0.000000	0.006731	0.320637	0.000000	0.000000	0.000000	0.000000	0.000000	1
10.687160	15.642117	0.000000	0.002634	0.006271	0.000000	0.006801	0.250298	0.000000	0.000000	0.000000	0.000000	0.000000	1
13.796152	15.642117	0.000000	-0.000112	0.003704	0.000000	0.003705	0.618785	0.000000	0.000000	0.000000	0.000000	0.000000	1
16.905145	15.642117	0.000000	0.001843	0.004991	0.000000	0.005320	1.605051	0.000000	0.000000	0.000000	0.000000	0.000000	1
20.014137	15.642117	0.000000	0.010714	0.015180	0.000000	0.018580	0.597459	0.000000	0.000000	0.000000	0.000000	0.000000	1
23.123129	15.642117	0.000000	0.009821	0.015828	0.000000	0.018627	-0.933159	0.000000	0.000000	0.000000	0.000000	0.000000	1
26.232121	15.642117	0.000000	0.005753	0.008591	0.000000	0.010339	-0.047127	0.000000	0.000000	0.000000	0.000000	0.000000	1
29.341113	15.642117	0.000000	-0.003644	0.006865	0.000000	0.007772	0.594826	0.000000	0.000000	0.000000	0.000000	0.000000	1
32.450105	15.642117	0.000000	-0.015050	-0.011404	0.000000	0.018883	2.860540	0.000000	0.000000	0.000000	0.000000	0.000000	1
35.559097	15.642117	0.000000	-0.013082	-0.012069	0.000000	0.017799	6.982560	0.000000	0.000000	0.000000	0.000000	0.000000	1
38.668089	15.642117	0.000000	-0.005022	0.003437	0.000000	0.006086	11.574580	0.000000	0.000000	0.000000	0.000000	0.000000	1
41.777081	15.642117	0.000000	0.008420	0.044270	0.000000	0.045064	7.350712	0.000000	0.000000	0.000000	0.000000	0.000000	1
44.886073	15.642117	0.000000	-0.006997	0.022903	0.000000	0.023948	-0.248196	0.000000	0.000000	0.000000	0.000000	0.000000	1
47.995066	15.642117	0.000000	-0.003820	0.023703	0.000000	0.024009	-1.758622	0.000000	0.000000	0.000000	0.000000	0.000000	1
51.104058	15.642117	0.000000	0.007492	0.018691	0.000000	0.020136	1.753740	0.000000	0.000000	0.000000	0.000000	0.000000	1
54.213050	15.642117	0.000000	-0.002267	0.039444	0.000000	0.039510	5.183253	0.000000	0.000000	0.000000	0.000000	0.000000	1
57.322042	15.642117	0.000000	-0.000750	0.046898	0.000000	0.046904	-1.551234	0.000000	0.000000	0.000000	0.000000	0.000000	1
60.431034	15.642117	0.000000	0.015204	0.008269	0.000000	0.017307	-2.799982	0.000000	0.000000	0.000000	0.000000	0.000000	2
63.540026	15.642117	0.000000	0.010469	0.011102	0.000000	0.015260	3.346299	0.000000	0.000000	0.000000	0.000000	0.000000	2
66.649018	15.642117	0.000000	-0.001173	0.010872	0.000000	0.010935	6.922352	0.000000	0.000000	0.000000	0.000000	0.000000	1
69.758010	15.642117	0.000000	-0.021337	0.033297	0.000000	0.039547	6.064444	0.000000	0.000000	0.000000	0.000000	0.000000	1
72.867002	15.642117	0.000000	-0.033908	0.040658	0.000000	0.052941	7.679987	0.000000	0.000000	0.000000	0.000000	0.000000	1
75.975994	15.642117	0.000000	-0.011655	0.065706	0.000000	0.066732	103.552697	0.000000	0.000000	0.000000	0.000000	0.000000	2
79.084987	15.642117	0.000000	0.235396	0.732839	0.000000	0.769717	121.004274	0.000000	0.000000	0.000000	0.000000	0.000000	2
82.193979	15.642117	0.000000	0.438309	0.619510	0.000000	0.758886	13.418688	0.000000	0.000000	0.000000	0.000000	0.000000	1
85.302971	15.642117	0.000000	0.206267	0.752118	0.000000	0.779890	1.320665	0.000000	0.000000	0.000000	0.000000	0.000000	2
88.411963	15.642117	0.000000	0.047583	0.879654	0.000000	0.880940	-62.741393	0.000000	0.000000	0.000000	0.000000	0.000000	1
91.520955	15.642117	0.000000	0.031660	0.494376	0.000000	0.495389	-130.984731	0.000000	0.000000	0.000000	0.000000	0.000000	2
94.629947	15.642117	0.000000	0.083449	0.236356	0.000000	0.250655	-70.782122	0.000000	0.000000	0.000000	0.000000	0.000000	1
97.738939	15.642117	0.000000	0.201016	0.298368	0.000000	0.359765	-20.960691	0.000000	0.000000	0.000000	0.000000	0.000000	1
100.847931	15.642117	0.000000	0.217900	0.297930	0.000000	0.369111	-24.201992	0.000000	0.000000	0.000000	0.000000	0.000000	1
103.956923	15.642117	0.000000	0.290414	0.246935	0.000000	0.381205	-37.676464	0.000000	0.000000	0.000000	0.000000	0.000000	1
107.065915	15.642117	0.000000	0.230959	0.255584	0.000000	0.344478	-43.441864	0.000000	0.000000	0.000000	0.000000	0.000000	1
110.174908	15.642117	0.000000	0.166073	0.227002	0.000000	0.281265	-52.747411	0.000000	0.000000	0.000000	0.000000	0.000000	1
113.283900	15.642117	0.000000	-0.010216	0.127441	0.000000	0.127850	-59.338328	0.000000	0.000000	0.000000	0.000000	0.000000	2
116.392892	15.642117	0.000000	-0.053393	0.064849	0.000000	0.084001	-36.401787	0.000000	0.000000	0.000000	0.000000	0.000000	1
119.501884	15.642117	0.000000	-0.039043	0.027297	0.000000	0.047639	-12.663829	0.000000	0.000000	0.000000	0.000000	0.000000	1