TITLE = "PIV Result  977 "
VARIABLES = "X (mm)""Y (mm)""Z (mm)""U (m/s)""V (m/s)""W (m/s)""Speed (m/s)""Vorticity""U-std""V-std""W-std""Speed-std""Vorticity-std""Flag"
ZONE T="ZONE 977 "
I= 51 , J= 16 , K= 1 , F=POINT
DT=(DOUBLE DOUBLE DOUBLE DOUBLE DOUBLE DOUBLE DOUBLE DOUBLE DOUBLE DOUBLE DOUBLE DOUBLE DOUBLE DOUBLE)
4.469176	3.206148	0.000000	0.004621	0.005996	0.000000	0.007570	-0.105374	0.000000	0.000000	0.000000	0.000000	0.000000	1
7.578168	3.206148	0.000000	0.000607	0.004045	0.000000	0.004090	0.963755	0.000000	0.000000	0.000000	0.000000	0.000000	1
10.687160	3.206148	0.000000	0.006211	0.010964	0.000000	0.012601	1.528069	0.000000	0.000000	0.000000	0.000000	0.000000	1
13.796152	3.206148	0.000000	0.007487	0.012537	0.000000	0.014603	-0.588297	0.000000	0.000000	0.000000	0.000000	0.000000	1
16.905145	3.206148	0.000000	0.002166	0.004485	0.000000	0.004981	-1.709459	0.000000	0.000000	0.000000	0.000000	0.000000	1
20.014137	3.206148	0.000000	0.003025	0.006157	0.000000	0.006860	-1.825328	0.000000	0.000000	0.000000	0.000000	0.000000	1
23.123129	3.206148	0.000000	0.002242	0.003075	0.000000	0.003805	-2.709942	0.000000	0.000000	0.000000	0.000000	0.000000	1
26.232121	3.206148	0.000000	0.005020	0.004682	0.000000	0.006865	-1.383718	0.000000	0.000000	0.000000	0.000000	0.000000	1
29.341113	3.206148	0.000000	0.008281	0.011012	0.000000	0.013778	1.098739	0.000000	0.000000	0.000000	0.000000	0.000000	1
32.450105	3.206148	0.000000	0.004118	0.014339	0.000000	0.014919	-0.803144	0.000000	0.000000	0.000000	0.000000	0.000000	1
35.559097	3.206148	0.000000	0.001213	-0.001052	0.000000	0.001605	-2.969261	0.000000	0.000000	0.000000	0.000000	0.000000	1
38.668089	3.206148	0.000000	0.000460	-0.000643	0.000000	0.000790	-1.016728	0.000000	0.000000	0.000000	0.000000	0.000000	1
41.777081	3.206148	0.000000	0.001761	-0.000445	0.000000	0.001816	-0.655575	0.000000	0.000000	0.000000	0.000000	0.000000	1
44.886073	3.206148	0.000000	0.000794	-0.001198	0.000000	0.001437	-2.570753	0.000000	0.000000	0.000000	0.000000	0.000000	1
47.995066	3.206148	0.000000	0.001608	-0.001317	0.000000	0.002079	-3.825262	0.000000	0.000000	0.000000	0.000000	0.000000	1
51.104058	3.206148	0.000000	0.003820	-0.000133	0.000000	0.003822	-1.179695	0.000000	0.000000	0.000000	0.000000	0.000000	1
54.213050	3.206148	0.000000	-0.001449	-0.000357	0.000000	0.001492	9.947150	0.000000	0.000000	0.000000	0.000000	0.000000	1
57.322042	3.206148	0.000000	-0.014369	0.000439	0.000000	0.014376	25.816446	0.000000	0.000000	0.000000	0.000000	0.000000	1
60.431034	3.206148	0.000000	-0.075712	0.027977	0.000000	0.080716	36.055891	0.000000	0.000000	0.000000	0.000000	0.000000	2
63.540026	3.206148	0.000000	-0.140468	0.041746	0.000000	0.146540	36.171573	0.000000	0.000000	0.000000	0.000000	0.000000	2
66.649018	3.206148	0.000000	-0.128840	0.039783	0.000000	0.134842	22.026868	0.000000	0.000000	0.000000	0.000000	0.000000	2
69.758010	3.206148	0.000000	-0.051642	0.008936	0.000000	0.052409	5.262339	0.000000	0.000000	0.000000	0.000000	0.000000	1
72.867002	3.206148	0.000000	-0.042057	-0.031289	0.000000	0.052419	-1.893635	0.000000	0.000000	0.000000	0.000000	0.000000	1
75.975994	3.206148	0.000000	-0.122723	-0.030664	0.000000	0.126496	13.335328	0.000000	0.000000	0.000000	0.000000	0.000000	2
79.084987	3.206148	0.000000	-0.126469	0.088776	0.000000	0.154517	61.565602	0.000000	0.000000	0.000000	0.000000	0.000000	2
82.193979	3.206148	0.000000	-0.108624	0.275292	0.000000	0.295947	134.836711	0.000000	0.000000	0.000000	0.000000	0.000000	1
85.302971	3.206148	0.000000	-0.056239	1.016500	0.000000	1.018055	124.962494	0.000000	0.000000	0.000000	0.000000	0.000000	2
88.411963	3.206148	0.000000	-0.011176	1.310661	0.000000	1.310708	-20.361498	0.000000	0.000000	0.000000	0.000000	0.000000	1
91.520955	3.206148	0.000000	-0.006458	0.934167	0.000000	0.934189	-187.727335	0.000000	0.000000	0.000000	0.000000	0.000000	2
94.629947	3.206148	0.000000	-0.010126	0.036906	0.000000	0.038270	-132.378888	0.000000	0.000000	0.000000	0.000000	0.000000	2
97.738939	3.206148	0.000000	-0.005109	-0.002934	0.000000	0.005892	-0.728622	0.000000	0.000000	0.000000	0.000000	0.000000	1
100.847931	3.206148	0.000000	-0.001180	-0.002969	0.000000	0.003195	0.664854	0.000000	0.000000	0.000000	0.000000	0.000000	1
103.956923	3.206148	0.000000	-0.001323	-0.001336	0.000000	0.001881	1.909421	0.000000	0.000000	0.000000	0.000000	0.000000	1
107.065915	3.206148	0.000000	-0.006595	0.000769	0.000000	0.006639	4.741629	0.000000	0.000000	0.000000	0.000000	0.000000	1
110.174908	3.206148	0.000000	-0.005859	0.000197	0.000000	0.005862	4.359718	0.000000	0.000000	0.000000	0.000000	0.000000	1
113.283900	3.206148	0.000000	0.001182	-0.000736	0.000000	0.001393	2.321185	0.000000	0.000000	0.000000	0.000000	0.000000	1
116.392892	3.206148	0.000000	0.001094	-0.000406	0.000000	0.001167	2.033052	0.000000	0.000000	0.000000	0.000000	0.000000	1
119.501884	3.206148	0.000000	-0.000846	-0.000236	0.000000	0.000879	1.972497	0.000000	0.000000	0.000000	0.000000	0.000000	1
122.610876	3.206148	0.000000	-0.000509	0.000121	0.000000	0.000523	1.624258	0.000000	0.000000	0.000000	0.000000	0.000000	1
125.719868	3.206148	0.000000	0.001576	-0.000339	0.000000	0.001612	1.352265	0.000000	0.000000	0.000000	0.000000	0.000000	1
128.828860	3.206148	0.000000	0.000487	-0.000932	0.000000	0.001052	0.966677	0.000000	0.000000	0.000000	0.000000	0.000000	1
131.937852	3.206148	0.000000	-0.000768	-0.000304	0.000000	0.000826	1.832683	0.000000	0.000000	0.000000	0.000000	0.000000	1
135.046844	3.206148	0.000000	-0.011471	0.011682	0.000000	0.016372	1.233587	0.000000	0.000000	0.000000	0.000000	0.000000	1
138.155836	3.206148	0.000000	0.000550	0.002851	0.000000	0.002904	2.682484	0.000000	0.000000	0.000000	0.000000	0.000000	1
141.264829	3.206148	0.000000	0.003255	0.004281	0.000000	0.005378	5.334333	0.000000	0.000000	0.000000	0.000000	0.000000	1
144.373821	3.206148	0.000000	0.001315	0.004437	0.000000	0.004628	2.991250	0.000000	0.000000	0.000000	0.000000	0.000000	1
147.482813	3.206148	0.000000	-0.002612	0.003935	0.000000	0.004723	0.614350	0.000000	0.000000	0.000000	0.000000	0.000000	1
150.591805	3.206148	0.000000	-0.003740	0.006367	0.000000	0.007384	0.816032	0.000000	0.000000	0.000000	0.000000	0.000000	1
153.700797	3.206148	0.000000	-0.006021	0.008003	0.000000	0.010015	0.814932	0.000000	0.000000	0.000000	0.000000	0.000000	1
156.809789	3.206148	0.000000	-0.007157	0.011827	0.000000	0.013824	-0.833312	0.000000	0.000000	0.000000	0.000000	0.000000	1
159.918781	3.206148	0.000000	-0.006050	0.013152	0.000000	0.014477	-1.967386	0.000000	0.000000	0.000000	0.000000	0.000000	1
4.469176	6.315140	0.000000	0.005893	0.005303	0.000000	0.007928	0.347472	0.000000	0.000000	0.000000	0.000000	0.000000	1
7.578168	6.315140	0.000000	0.000827	0.008091	0.000000	0.008133	0.990840	0.000000	0.000000	0.000000	0.000000	0.000000	1
10.687160	6.315140	0.000000	0.003910	0.011730	0.000000	0.012364	1.083057	0.000000	0.000000	0.000000	0.000000	0.000000	1
13.796152	6.315140	0.000000	0.003659	0.010390	0.000000	0.011015	-0.468277	0.000000	0.000000	0.000000	0.000000	0.000000	1
16.905145	6.315140	0.000000	0.007091	0.005860	0.000000	0.009199	-1.269685	0.000000	0.000000	0.000000	0.000000	0.000000	1
20.014137	6.315140	0.000000	0.007843	0.006351	0.000000	0.010092	-1.063356	0.000000	0.000000	0.000000	0.000000	0.000000	1
23.123129	6.315140	0.000000	0.013211	0.010102	0.000000	0.016631	-1.500799	0.000000	0.000000	0.000000	0.000000	0.000000	1
26.232121	6.315140	0.000000	0.009268	0.005131	0.000000	0.010594	-1.004006	0.000000	0.000000	0.000000	0.000000	0.000000	1
29.341113	6.315140	0.000000	0.007986	0.004128	0.000000	0.008990	1.061026	0.000000	0.000000	0.000000	0.000000	0.000000	1
32.450105	6.315140	0.000000	0.006630	0.015309	0.000000	0.016683	-0.551800	0.000000	0.000000	0.000000	0.000000	0.000000	1
35.559097	6.315140	0.000000	0.002477	0.012197	0.000000	0.012446	-3.506052	0.000000	0.000000	0.000000	0.000000	0.000000	1
38.668089	6.315140	0.000000	-0.000066	-0.002122	0.000000	0.002123	-2.133316	0.000000	0.000000	0.000000	0.000000	0.000000	1
41.777081	6.315140	0.000000	0.001150	-0.001454	0.000000	0.001854	-1.305894	0.000000	0.000000	0.000000	0.000000	0.000000	1
44.886073	6.315140	0.000000	0.005598	-0.006661	0.000000	0.008701	-1.868884	0.000000	0.000000	0.000000	0.000000	0.000000	1
47.995066	6.315140	0.000000	0.015626	-0.009534	0.000000	0.018305	7.697496	0.000000	0.000000	0.000000	0.000000	0.000000	1
51.104058	6.315140	0.000000	0.012291	-0.013987	0.000000	0.018620	24.875054	0.000000	0.000000	0.000000	0.000000	0.000000	1
54.213050	6.315140	0.000000	-0.004913	0.002331	0.000000	0.005438	31.018868	0.000000	0.000000	0.000000	0.000000	0.000000	1
57.322042	6.315140	0.000000	-0.065390	0.059668	0.000000	0.088522	27.339188	0.000000	0.000000	0.000000	0.000000	0.000000	1
60.431034	6.315140	0.000000	-0.202774	0.062484	0.000000	0.212183	27.976647	0.000000	0.000000	0.000000	0.000000	0.000000	2
63.540026	6.315140	0.000000	-0.246560	0.055515	0.000000	0.252732	31.782982	0.000000	0.000000	0.000000	0.000000	0.000000	2
66.649018	6.315140	0.000000	-0.205225	0.084878	0.000000	0.222084	25.750961	0.000000	0.000000	0.000000	0.000000	0.000000	1
69.758010	6.315140	0.000000	-0.117212	0.037820	0.000000	0.123162	14.912300	0.000000	0.000000	0.000000	0.000000	0.000000	1
72.867002	6.315140	0.000000	-0.040125	0.015799	0.000000	0.043123	12.576668	0.000000	0.000000	0.000000	0.000000	0.000000	1
75.975994	6.315140	0.000000	-0.058473	0.056417	0.000000	0.081252	30.952913	0.000000	0.000000	0.000000	0.000000	0.000000	2
79.084987	6.315140	0.000000	-0.110883	0.207591	0.000000	0.235349	70.125228	0.000000	0.000000	0.000000	0.000000	0.000000	2
82.193979	6.315140	0.000000	-0.101302	0.618834	0.000000	0.627070	109.176999	0.000000	0.000000	0.000000	0.000000	0.000000	1
85.302971	6.315140	0.000000	-0.081641	0.961524	0.000000	0.964984	83.134249	0.000000	0.000000	0.000000	0.000000	0.000000	2
88.411963	6.315140	0.000000	-0.033716	1.071476	0.000000	1.072007	-44.881622	0.000000	0.000000	0.000000	0.000000	0.000000	2
91.520955	6.315140	0.000000	0.010855	0.737473	0.000000	0.737553	-177.018319	0.000000	0.000000	0.000000	0.000000	0.000000	1
94.629947	6.315140	0.000000	-0.025136	0.007730	0.000000	0.026298	-113.057696	0.000000	0.000000	0.000000	0.000000	0.000000	1
97.738939	6.315140	0.000000	-0.013793	0.006917	0.000000	0.015431	-0.650406	0.000000	0.000000	0.000000	0.000000	0.000000	1
100.847931	6.315140	0.000000	-0.003726	0.003619	0.000000	0.005194	0.800684	0.000000	0.000000	0.000000	0.000000	0.000000	1
103.956923	6.315140	0.000000	-0.002247	-0.001111	0.000000	0.002506	0.888599	0.000000	0.000000	0.000000	0.000000	0.000000	1
107.065915	6.315140	0.000000	-0.024149	0.001679	0.000000	0.024207	0.206216	0.000000	0.000000	0.000000	0.000000	0.000000	1
110.174908	6.315140	0.000000	-0.023780	0.002370	0.000000	0.023898	-0.291679	0.000000	0.000000	0.000000	0.000000	0.000000	1
113.283900	6.315140	0.000000	-0.002172	0.000652	0.000000	0.002268	0.539262	0.000000	0.000000	0.000000	0.000000	0.000000	1
116.392892	6.315140	0.000000	-0.006785	-0.000670	0.000000	0.006818	1.302650	0.000000	0.000000	0.000000	0.000000	0.000000	1
119.501884	6.315140	0.000000	-0.008138	-0.000969	0.000000	0.008196	1.078963	0.000000	0.000000	0.000000	0.000000	0.000000	1
122.610876	6.315140	0.000000	-0.002673	-0.001293	0.000000	0.002969	1.428679	0.000000	0.000000	0.000000	0.000000	0.000000	1
125.719868	6.315140	0.000000	-0.003092	0.003044	0.000000	0.004339	1.290802	0.000000	0.000000	0.000000	0.000000	0.000000	1
128.828860	6.315140	0.000000	-0.001875	0.002713	0.000000	0.003298	0.419332	0.000000	0.000000	0.000000	0.000000	0.000000	1
131.937852	6.315140	0.000000	-0.003297	0.003109	0.000000	0.004532	1.090351	0.000000	0.000000	0.000000	0.000000	0.000000	1
135.046844	6.315140	0.000000	-0.009539	0.007404	0.000000	0.012075	0.805003	0.000000	0.000000	0.000000	0.000000	0.000000	1
138.155836	6.315140	0.000000	-0.008785	0.007297	0.000000	0.011420	1.620580	0.000000	0.000000	0.000000	0.000000	0.000000	1
141.264829	6.315140	0.000000	-0.013480	0.014692	0.000000	0.019939	2.982157	0.000000	0.000000	0.000000	0.000000	0.000000	1
144.373821	6.315140	0.000000	-0.013750	0.014178	0.000000	0.019750	0.525898	0.000000	0.000000	0.000000	0.000000	0.000000	1
147.482813	6.315140	0.000000	-0.004238	0.003745	0.000000	0.005656	-0.901911	0.000000	0.000000	0.000000	0.000000	0.000000	1
150.591805	6.315140	0.000000	-0.002809	0.002502	0.000000	0.003762	0.600502	0.000000	0.000000	0.000000	0.000000	0.000000	1
153.700797	6.315140	0.000000	-0.007636	0.008445	0.000000	0.011386	1.166827	0.000000	0.000000	0.000000	0.000000	0.000000	1
156.809789	6.315140	0.000000	-0.004337	0.007696	0.000000	0.008834	0.557378	0.000000	0.000000	0.000000	0.000000	0.000000	1
159.918781	6.315140	0.000000	0.002762	0.005769	0.000000	0.006396	0.331039	0.000000	0.000000	0.000000	0.000000	0.000000	1
4.469176	9.424132	0.000000	0.004953	0.008492	0.000000	0.009831	0.959269	0.000000	0.000000	0.000000	0.000000	0.000000	1
7.578168	9.424132	0.000000	-0.000117	0.008797	0.000000	0.008797	0.778128	0.000000	0.000000	0.000000	0.000000	0.000000	1
10.687160	9.424132	0.000000	0.000539	0.008525	0.000000	0.008542	0.241259	0.000000	0.000000	0.000000	0.000000	0.000000	1
13.796152	9.424132	0.000000	0.003524	0.006612	0.000000	0.007492	0.176345	0.000000	0.000000	0.000000	0.000000	0.000000	1
16.905145	9.424132	0.000000	0.011047	0.010380	0.000000	0.015158	0.062732	0.000000	0.000000	0.000000	0.000000	0.000000	1
20.014137	9.424132	0.000000	0.010543	0.010806	0.000000	0.015098	-0.088240	0.000000	0.000000	0.000000	0.000000	0.000000	1
23.123129	9.424132	0.000000	0.010243	0.008777	0.000000	0.013489	-0.146529	0.000000	0.000000	0.000000	0.000000	0.000000	1
26.232121	9.424132	0.000000	0.009006	0.004901	0.000000	0.010253	-0.156631	0.000000	0.000000	0.000000	0.000000	0.000000	1
29.341113	9.424132	0.000000	0.007518	0.003025	0.000000	0.008104	1.290208	0.000000	0.000000	0.000000	0.000000	0.000000	1
32.450105	9.424132	0.000000	0.012227	0.011846	0.000000	0.017024	0.244530	0.000000	0.000000	0.000000	0.000000	0.000000	1
35.559097	9.424132	0.000000	0.009548	0.009016	0.000000	0.013132	-2.659489	0.000000	0.000000	0.000000	0.000000	0.000000	1
38.668089	9.424132	0.000000	0.004968	0.003774	0.000000	0.006239	-2.321082	0.000000	0.000000	0.000000	0.000000	0.000000	1
41.777081	9.424132	0.000000	0.002198	0.000440	0.000000	0.002241	-1.474488	0.000000	0.000000	0.000000	0.000000	0.000000	1
44.886073	9.424132	0.000000	0.005773	-0.008709	0.000000	0.010449	7.402344	0.000000	0.000000	0.000000	0.000000	0.000000	1
47.995066	9.424132	0.000000	0.000188	-0.020033	0.000000	0.020034	32.404995	0.000000	0.000000	0.000000	0.000000	0.000000	1
51.104058	9.424132	0.000000	-0.094785	0.099862	0.000000	0.137683	56.757484	0.000000	0.000000	0.000000	0.000000	0.000000	2
54.213050	9.424132	0.000000	-0.132088	0.244699	0.000000	0.278073	57.454816	0.000000	0.000000	0.000000	0.000000	0.000000	1
57.322042	9.424132	0.000000	-0.151356	0.226614	0.000000	0.272511	30.315847	0.000000	0.000000	0.000000	0.000000	0.000000	1
60.431034	9.424132	0.000000	-0.331681	0.115459	0.000000	0.351202	15.510424	0.000000	0.000000	0.000000	0.000000	0.000000	2
63.540026	9.424132	0.000000	-0.308722	0.072268	0.000000	0.317068	23.314048	0.000000	0.000000	0.000000	0.000000	0.000000	2
66.649018	9.424132	0.000000	-0.283184	0.102552	0.000000	0.301181	19.028076	0.000000	0.000000	0.000000	0.000000	0.000000	2
69.758010	9.424132	0.000000	-0.267974	0.087672	0.000000	0.281951	12.879527	0.000000	0.000000	0.000000	0.000000	0.000000	1
72.867002	9.424132	0.000000	-0.073052	0.064675	0.000000	0.097568	31.398194	0.000000	0.000000	0.000000	0.000000	0.000000	2
75.975994	9.424132	0.000000	-0.040429	0.206859	0.000000	0.210773	64.855498	0.000000	0.000000	0.000000	0.000000	0.000000	2
79.084987	9.424132	0.000000	-0.022688	0.568262	0.000000	0.568714	89.656428	0.000000	0.000000	0.000000	0.000000	0.000000	1
82.193979	9.424132	0.000000	-0.063904	0.854799	0.000000	0.857184	85.980757	0.000000	0.000000	0.000000	0.000000	0.000000	2
85.302971	9.424132	0.000000	-0.043784	1.053798	0.000000	1.054707	30.942713	0.000000	0.000000	0.000000	0.000000	0.000000	2
88.411963	9.424132	0.000000	-0.033733	1.028933	0.000000	1.029485	-105.181118	0.000000	0.000000	0.000000	0.000000	0.000000	2
91.520955	9.424132	0.000000	-0.009793	0.431944	0.000000	0.432055	-191.608271	0.000000	0.000000	0.000000	0.000000	0.000000	2
94.629947	9.424132	0.000000	-0.015097	-0.006816	0.000000	0.016564	-94.389470	0.000000	0.000000	0.000000	0.000000	0.000000	1
97.738939	9.424132	0.000000	-0.009392	0.000626	0.000000	0.009413	-2.181650	0.000000	0.000000	0.000000	0.000000	0.000000	1
100.847931	9.424132	0.000000	-0.008453	0.004294	0.000000	0.009482	0.566842	0.000000	0.000000	0.000000	0.000000	0.000000	1
103.956923	9.424132	0.000000	-0.009380	0.008113	0.000000	0.012402	-0.620648	0.000000	0.000000	0.000000	0.000000	0.000000	1
107.065915	9.424132	0.000000	-0.006361	0.003383	0.000000	0.007205	-3.468634	0.000000	0.000000	0.000000	0.000000	0.000000	1
110.174908	9.424132	0.000000	-0.002041	0.000975	0.000000	0.002262	-3.019492	0.000000	0.000000	0.000000	0.000000	0.000000	1
113.283900	9.424132	0.000000	-0.005343	0.001033	0.000000	0.005442	-0.737342	0.000000	0.000000	0.000000	0.000000	0.000000	1
116.392892	9.424132	0.000000	-0.008874	0.001869	0.000000	0.009069	0.174768	0.000000	0.000000	0.000000	0.000000	0.000000	1
119.501884	9.424132	0.000000	-0.008738	0.001820	0.000000	0.008926	0.003021	0.000000	0.000000	0.000000	0.000000	0.000000	1
122.610876	9.424132	0.000000	-0.003050	0.001132	0.000000	0.003253	0.840243	0.000000	0.000000	0.000000	0.000000	0.000000	1
125.719868	9.424132	0.000000	-0.006385	0.008495	0.000000	0.010627	0.580817	0.000000	0.000000	0.000000	0.000000	0.000000	1
128.828860	9.424132	0.000000	-0.002698	0.004628	0.000000	0.005357	0.064541	0.000000	0.000000	0.000000	0.000000	0.000000	1
131.937852	9.424132	0.000000	-0.001754	0.003444	0.000000	0.003864	1.151987	0.000000	0.000000	0.000000	0.000000	0.000000	1
135.046844	9.424132	0.000000	-0.008779	0.007289	0.000000	0.011411	0.845501	0.000000	0.000000	0.000000	0.000000	0.000000	1
138.155836	9.424132	0.000000	-0.008197	0.007587	0.000000	0.011169	0.423287	0.000000	0.000000	0.000000	0.000000	0.000000	1
141.264829	9.424132	0.000000	-0.010546	0.011819	0.000000	0.015840	0.415934	0.000000	0.000000	0.000000	0.000000	0.000000	1
144.373821	9.424132	0.000000	-0.013849	0.014897	0.000000	0.020340	-2.018305	0.000000	0.000000	0.000000	0.000000	0.000000	1
147.482813	9.424132	0.000000	-0.002761	0.002858	0.000000	0.003974	-2.385859	0.000000	0.000000	0.000000	0.000000	0.000000	1
150.591805	9.424132	0.000000	-0.001177	0.000989	0.000000	0.001537	0.735899	0.000000	0.000000	0.000000	0.000000	0.000000	1
153.700797	9.424132	0.000000	-0.008343	0.006981	0.000000	0.010879	1.497118	0.000000	0.000000	0.000000	0.000000	0.000000	1
156.809789	9.424132	0.000000	-0.009329	0.009908	0.000000	0.013609	0.980245	0.000000	0.000000	0.000000	0.000000	0.000000	1
159.918781	9.424132	0.000000	-0.009520	0.010910	0.000000	0.014480	1.149251	0.000000	0.000000	0.000000	0.000000	0.000000	1
4.469176	12.533124	0.000000	-0.000244	0.005602	0.000000	0.005608	0.317374	0.000000	0.000000	0.000000	0.000000	0.000000	1
7.578168	12.533124	0.000000	-0.000274	0.006896	0.000000	0.006902	-0.434381	0.000000	0.000000	0.000000	0.000000	0.000000	1
10.687160	12.533124	0.000000	0.001187	0.007400	0.000000	0.007495	-0.809346	0.000000	0.000000	0.000000	0.000000	0.000000	1
13.796152	12.533124	0.000000	0.002530	0.007291	0.000000	0.007718	1.062055	0.000000	0.000000	0.000000	0.000000	0.000000	1
16.905145	12.533124	0.000000	0.011050	0.012925	0.000000	0.017005	2.042622	0.000000	0.000000	0.000000	0.000000	0.000000	1
20.014137	12.533124	0.000000	0.009819	0.013266	0.000000	0.016504	0.686069	0.000000	0.000000	0.000000	0.000000	0.000000	1
23.123129	12.533124	0.000000	0.006510	0.010903	0.000000	0.012699	-0.413297	0.000000	0.000000	0.000000	0.000000	0.000000	1
26.232121	12.533124	0.000000	0.005029	0.006986	0.000000	0.008608	-0.078822	0.000000	0.000000	0.000000	0.000000	0.000000	1
29.341113	12.533124	0.000000	0.006293	0.007610	0.000000	0.009875	1.172142	0.000000	0.000000	0.000000	0.000000	0.000000	1
32.450105	12.533124	0.000000	0.011255	0.012006	0.000000	0.016457	0.729374	0.000000	0.000000	0.000000	0.000000	0.000000	1
35.559097	12.533124	0.000000	0.009258	0.007978	0.000000	0.012221	-1.171978	0.000000	0.000000	0.000000	0.000000	0.000000	1
38.668089	12.533124	0.000000	0.005460	0.003147	0.000000	0.006302	-1.057672	0.000000	0.000000	0.000000	0.000000	0.000000	1
41.777081	12.533124	0.000000	0.005900	0.003636	0.000000	0.006930	0.828739	0.000000	0.000000	0.000000	0.000000	0.000000	1
44.886073	12.533124	0.000000	-0.018884	-0.013477	0.000000	0.023200	19.351350	0.000000	0.000000	0.000000	0.000000	0.000000	2
47.995066	12.533124	0.000000	-0.107731	0.069200	0.000000	0.128042	42.337586	0.000000	0.000000	0.000000	0.000000	0.000000	2
51.104058	12.533124	0.000000	-0.191642	0.107551	0.000000	0.219759	54.561464	0.000000	0.000000	0.000000	0.000000	0.000000	2
54.213050	12.533124	0.000000	-0.271932	0.141300	0.000000	0.306452	63.903948	0.000000	0.000000	0.000000	0.000000	0.000000	2
57.322042	12.533124	0.000000	-0.320342	0.216488	0.000000	0.386634	37.916956	0.000000	0.000000	0.000000	0.000000	0.000000	1
60.431034	12.533124	0.000000	-0.410373	0.109120	0.000000	0.424633	21.377685	0.000000	0.000000	0.000000	0.000000	0.000000	1
63.540026	12.533124	0.000000	-0.281081	0.210433	0.000000	0.351125	29.677601	0.000000	0.000000	0.000000	0.000000	0.000000	2
66.649018	12.533124	0.000000	-0.313404	0.307587	0.000000	0.439126	9.613101	0.000000	0.000000	0.000000	0.000000	0.000000	1
69.758010	12.533124	0.000000	-0.300497	0.236422	0.000000	0.382353	1.925886	0.000000	0.000000	0.000000	0.000000	0.000000	1
72.867002	12.533124	0.000000	-0.180943	0.157189	0.000000	0.239685	42.660627	0.000000	0.000000	0.000000	0.000000	0.000000	1
75.975994	12.533124	0.000000	-0.098141	0.255797	0.000000	0.273978	81.575305	0.000000	0.000000	0.000000	0.000000	0.000000	2
79.084987	12.533124	0.000000	-0.050661	0.411378	0.000000	0.414486	106.859786	0.000000	0.000000	0.000000	0.000000	0.000000	2
82.193979	12.533124	0.000000	-0.038041	0.771474	0.000000	0.772411	117.699256	0.000000	0.000000	0.000000	0.000000	0.000000	2
85.302971	12.533124	0.000000	0.015908	1.109182	0.000000	1.109296	54.370688	0.000000	0.000000	0.000000	0.000000	0.000000	2
88.411963	12.533124	0.000000	0.176897	1.209143	0.000000	1.222015	-112.666573	0.000000	0.000000	0.000000	0.000000	0.000000	2
91.520955	12.533124	0.000000	0.081834	0.550629	0.000000	0.556677	-198.114314	0.000000	0.000000	0.000000	0.000000	0.000000	2
94.629947	12.533124	0.000000	0.033582	-0.010005	0.000000	0.035041	-87.411662	0.000000	0.000000	0.000000	0.000000	0.000000	1
97.738939	12.533124	0.000000	0.004636	0.003012	0.000000	0.005529	-1.936001	0.000000	0.000000	0.000000	0.000000	0.000000	1
100.847931	12.533124	0.000000	-0.007467	0.009461	0.000000	0.012053	-0.959305	0.000000	0.000000	0.000000	0.000000	0.000000	1
103.956923	12.533124	0.000000	-0.006192	0.017168	0.000000	0.018250	-1.958600	0.000000	0.000000	0.000000	0.000000	0.000000	1
107.065915	12.533124	0.000000	-0.002108	0.008198	0.000000	0.008464	-2.825432	0.000000	0.000000	0.000000	0.000000	0.000000	1
110.174908	12.533124	0.000000	-0.001281	0.004327	0.000000	0.004513	-2.552141	0.000000	0.000000	0.000000	0.000000	0.000000	1
113.283900	12.533124	0.000000	-0.003832	0.004203	0.000000	0.005688	-1.237850	0.000000	0.000000	0.000000	0.000000	0.000000	1
116.392892	12.533124	0.000000	-0.008276	0.004927	0.000000	0.009631	-0.439140	0.000000	0.000000	0.000000	0.000000	0.000000	1
119.501884	12.533124	0.000000	-0.007202	0.004889	0.000000	0.008705	-0.936955	0.000000	0.000000	0.000000	0.000000	0.000000	1
122.610876	12.533124	0.000000	-0.003302	0.006851	0.000000	0.007605	-0.016226	0.000000	0.000000	0.000000	0.000000	0.000000	1
125.719868	12.533124	0.000000	-0.003628	0.007565	0.000000	0.008390	1.149130	0.000000	0.000000	0.000000	0.000000	0.000000	1
128.828860	12.533124	0.000000	-0.004083	0.006387	0.000000	0.007581	2.352343	0.000000	0.000000	0.000000	0.000000	0.000000	1
131.937852	12.533124	0.000000	-0.007998	0.009555	0.000000	0.012461	2.352693	0.000000	0.000000	0.000000	0.000000	0.000000	1
135.046844	12.533124	0.000000	-0.011355	0.011601	0.000000	0.016233	1.753715	0.000000	0.000000	0.000000	0.000000	0.000000	1
138.155836	12.533124	0.000000	-0.006710	0.011850	0.000000	0.013618	1.588491	0.000000	0.000000	0.000000	0.000000	0.000000	1
141.264829	12.533124	0.000000	-0.008547	0.013048	0.000000	0.015598	0.317687	0.000000	0.000000	0.000000	0.000000	0.000000	1
144.373821	12.533124	0.000000	-0.012368	0.014018	0.000000	0.018694	-1.968011	0.000000	0.000000	0.000000	0.000000	0.000000	1
147.482813	12.533124	0.000000	-0.002032	0.001620	0.000000	0.002599	-1.054494	0.000000	0.000000	0.000000	0.000000	0.000000	1
150.591805	12.533124	0.000000	-0.001389	0.001385	0.000000	0.001962	1.916817	0.000000	0.000000	0.000000	0.000000	0.000000	1
153.700797	12.533124	0.000000	-0.009887	0.009774	0.000000	0.013903	0.950863	0.000000	0.000000	0.000000	0.000000	0.000000	1
156.809789	12.533124	0.000000	-0.008447	0.008398	0.000000	0.011911	-0.965258	0.000000	0.000000	0.000000	0.000000	0.000000	1
159.918781	12.533124	0.000000	-0.007763	0.007978	0.000000	0.011132	-1.168312	0.000000	0.000000	0.000000	0.000000	0.000000	1
4.469176	15.642117	0.000000	-0.001953	0.004030	0.000000	0.004478	-0.393795	0.000000	0.000000	0.000000	0.000000	0.000000	1
7.578168	15.642117	0.000000	0.007348	0.005643	0.000000	0.009264	-0.657230	0.000000	0.000000	0.000000	0.000000	0.000000	1
10.687160	15.642117	0.000000	0.008908	0.005990	0.000000	0.010734	-0.691595	0.000000	0.000000	0.000000	0.000000	0.000000	1
13.796152	15.642117	0.000000	-0.001046	0.006540	0.000000	0.006623	0.663560	0.000000	0.000000	0.000000	0.000000	0.000000	1
16.905145	15.642117	0.000000	0.000241	0.007923	0.000000	0.007927	1.927689	0.000000	0.000000	0.000000	0.000000	0.000000	1
20.014137	15.642117	0.000000	0.008054	0.012529	0.000000	0.014894	1.116689	0.000000	0.000000	0.000000	0.000000	0.000000	1
23.123129	15.642117	0.000000	0.006743	0.011350	0.000000	0.013202	-0.425771	0.000000	0.000000	0.000000	0.000000	0.000000	1
26.232121	15.642117	0.000000	0.004354	0.006573	0.000000	0.007884	-0.164453	0.000000	0.000000	0.000000	0.000000	0.000000	1
29.341113	15.642117	0.000000	0.007406	0.008810	0.000000	0.011509	0.660078	0.000000	0.000000	0.000000	0.000000	0.000000	1
32.450105	15.642117	0.000000	0.007320	0.008957	0.000000	0.011568	0.381871	0.000000	0.000000	0.000000	0.000000	0.000000	1
35.559097	15.642117	0.000000	0.008532	0.009281	0.000000	0.012607	-0.273998	0.000000	0.000000	0.000000	0.000000	0.000000	1
38.668089	15.642117	0.000000	0.010778	0.004470	0.000000	0.011669	0.206865	0.000000	0.000000	0.000000	0.000000	0.000000	1
41.777081	15.642117	0.000000	0.000663	0.009306	0.000000	0.009330	1.757059	0.000000	0.000000	0.000000	0.000000	0.000000	1
44.886073	15.642117	0.000000	-0.057504	0.010277	0.000000	0.058415	18.824642	0.000000	0.000000	0.000000	0.000000	0.000000	1
47.995066	15.642117	0.000000	-0.170905	0.080775	0.000000	0.189032	36.881934	0.000000	0.000000	0.000000	0.000000	0.000000	2
51.104058	15.642117	0.000000	-0.311218	0.090771	0.000000	0.324185	39.200591	0.000000	0.000000	0.000000	0.000000	0.000000	2
54.213050	15.642117	0.000000	-0.470938	0.086084	0.000000	0.478741	38.358908	0.000000	0.000000	0.000000	0.000000	0.000000	1
57.322042	15.642117	0.000000	-0.468946	0.123843	0.000000	0.485023	22.958546	0.000000	0.000000	0.000000	0.000000	0.000000	2
60.431034	15.642117	0.000000	-0.372152	0.208254	0.000000	0.426458	31.251724	0.000000	0.000000	0.000000	0.000000	0.000000	1
63.540026	15.642117	0.000000	-0.348705	0.383487	0.000000	0.518322	35.693550	0.000000	0.000000	0.000000	0.000000	0.000000	1
66.649018	15.642117	0.000000	-0.345422	0.379693	0.000000	0.513306	0.533544	0.000000	0.000000	0.000000	0.000000	0.000000	1
69.758010	15.642117	0.000000	-0.314335	0.344382	0.000000	0.466268	-19.614891	0.000000	0.000000	0.000000	0.000000	0.000000	1
72.867002	15.642117	0.000000	-0.437361	0.246995	0.000000	0.502286	2.168143	0.000000	0.000000	0.000000	0.000000	0.000000	1
75.975994	15.642117	0.000000	-0.317638	0.195311	0.000000	0.372881	32.262430	0.000000	0.000000	0.000000	0.000000	0.000000	2
79.084987	15.642117	0.000000	-0.209209	0.158723	0.000000	0.262605	73.068607	0.000000	0.000000	0.000000	0.000000	0.000000	1
82.193979	15.642117	0.000000	-0.090038	0.497449	0.000000	0.505532	118.350659	0.000000	0.000000	0.000000	0.000000	0.000000	2
85.302971	15.642117	0.000000	0.051588	1.061580	0.000000	1.062832	77.700620	0.000000	0.000000	0.000000	0.000000	0.000000	2
88.411963	15.642117	0.000000	0.103440	1.102067	0.000000	1.106911	-67.580228	0.000000	0.000000	0.000000	0.000000	0.000000	2
91.520955	15.642117	0.000000	0.073432	0.451238	0.000000	0.457174	-137.856028	0.000000	0.000000	0.000000	0.000000	0.000000	2
94.629947	15.642117	0.000000	0.035023	0.002355	0.000000	0.035102	-54.458596	0.000000	0.000000	0.000000	0.000000	0.000000	1
97.738939	15.642117	0.000000	0.014161	0.010704	0.000000	0.017751	3.078502	0.000000	0.000000	0.000000	0.000000	0.000000	1
100.847931	15.642117	0.000000	0.011889	0.021728	0.000000	0.024768	1.293583	0.000000	0.000000	0.000000	0.000000	0.000000	1
103.956923	15.642117	0.000000	0.004368	0.029033	0.000000	0.029360	0.347646	0.000000	0.000000	0.000000	0.000000	0.000000	1
107.065915	15.642117	0.000000	0.004603	0.035256	0.000000	0.035555	-1.380783	0.000000	0.000000	0.000000	0.000000	0.000000	1
110.174908	15.642117	0.000000	0.004270	0.033564	0.000000	0.033835	-4.113441	0.000000	0.000000	0.000000	0.000000	0.000000	1
113.283900	15.642117	0.000000	0.000471	0.011517	0.000000	0.011527	-3.505550	0.000000	0.000000	0.000000	0.000000	0.000000	1
116.392892	15.642117	0.000000	-0.012973	0.014521	0.000000	0.019472	-3.552385	0.000000	0.000000	0.000000	0.000000	0.000000	1
119.501884	15.642117	0.000000	0.001392	0.006182	0.000000	0.006336	-3.587248	0.000000	0.000000	0.000000	0.000000	0.000000	1