TITLE = "PIV Result  2663 "
VARIABLES = "X (mm)""Y (mm)""Z (mm)""U (m/s)""V (m/s)""W (m/s)""Speed (m/s)""Vorticity""U-std""V-std""W-std""Speed-std""Vorticity-std""Flag"
ZONE T="ZONE 2663 "
I= 51 , J= 16 , K= 1 , F=POINT
DT=(DOUBLE DOUBLE DOUBLE DOUBLE DOUBLE DOUBLE DOUBLE DOUBLE DOUBLE DOUBLE DOUBLE DOUBLE DOUBLE DOUBLE)
4.469176	3.206148	0.000000	0.002005	0.004112	0.000000	0.004575	0.832297	0.000000	0.000000	0.000000	0.000000	0.000000	1
7.578168	3.206148	0.000000	0.001936	0.004421	0.000000	0.004826	0.359372	0.000000	0.000000	0.000000	0.000000	0.000000	1
10.687160	3.206148	0.000000	0.002756	0.004515	0.000000	0.005290	-0.054349	0.000000	0.000000	0.000000	0.000000	0.000000	1
13.796152	3.206148	0.000000	0.002942	0.005858	0.000000	0.006556	0.664865	0.000000	0.000000	0.000000	0.000000	0.000000	1
16.905145	3.206148	0.000000	0.002391	0.006861	0.000000	0.007266	1.126023	0.000000	0.000000	0.000000	0.000000	0.000000	1
20.014137	3.206148	0.000000	0.004382	0.007372	0.000000	0.008576	0.089997	0.000000	0.000000	0.000000	0.000000	0.000000	1
23.123129	3.206148	0.000000	0.004326	0.007358	0.000000	0.008535	-0.836604	0.000000	0.000000	0.000000	0.000000	0.000000	1
26.232121	3.206148	0.000000	0.001236	0.008324	0.000000	0.008416	-1.810732	0.000000	0.000000	0.000000	0.000000	0.000000	1
29.341113	3.206148	0.000000	0.000078	0.008724	0.000000	0.008725	-2.129949	0.000000	0.000000	0.000000	0.000000	0.000000	1
32.450105	3.206148	0.000000	0.004102	0.010229	0.000000	0.011021	-2.133313	0.000000	0.000000	0.000000	0.000000	0.000000	1
35.559097	3.206148	0.000000	0.007318	0.000919	0.000000	0.007376	-2.222912	0.000000	0.000000	0.000000	0.000000	0.000000	1
38.668089	3.206148	0.000000	0.005527	0.001191	0.000000	0.005654	-2.210851	0.000000	0.000000	0.000000	0.000000	0.000000	1
41.777081	3.206148	0.000000	0.001344	0.000322	0.000000	0.001382	-1.496200	0.000000	0.000000	0.000000	0.000000	0.000000	1
44.886073	3.206148	0.000000	-0.003355	0.001692	0.000000	0.003758	-0.918516	0.000000	0.000000	0.000000	0.000000	0.000000	1
47.995066	3.206148	0.000000	-0.001815	0.001789	0.000000	0.002548	-3.341881	0.000000	0.000000	0.000000	0.000000	0.000000	1
51.104058	3.206148	0.000000	-0.000037	-0.000877	0.000000	0.000878	-4.795241	0.000000	0.000000	0.000000	0.000000	0.000000	1
54.213050	3.206148	0.000000	0.000027	-0.001610	0.000000	0.001610	-3.058672	0.000000	0.000000	0.000000	0.000000	0.000000	1
57.322042	3.206148	0.000000	-0.001435	-0.001077	0.000000	0.001794	-0.911666	0.000000	0.000000	0.000000	0.000000	0.000000	1
60.431034	3.206148	0.000000	-0.000387	-0.000007	0.000000	0.000387	3.094016	0.000000	0.000000	0.000000	0.000000	0.000000	1
63.540026	3.206148	0.000000	0.001244	-0.001917	0.000000	0.002285	9.477840	0.000000	0.000000	0.000000	0.000000	0.000000	1
66.649018	3.206148	0.000000	-0.001622	-0.000818	0.000000	0.001816	39.977162	0.000000	0.000000	0.000000	0.000000	0.000000	1
69.758010	3.206148	0.000000	-0.105236	0.009298	0.000000	0.105646	164.496017	0.000000	0.000000	0.000000	0.000000	0.000000	2
72.867002	3.206148	0.000000	-0.581834	0.825948	0.000000	1.010307	114.268866	0.000000	0.000000	0.000000	0.000000	0.000000	2
75.975994	3.206148	0.000000	-0.645026	1.179585	0.000000	1.344425	-132.572687	0.000000	0.000000	0.000000	0.000000	0.000000	1
79.084987	3.206148	0.000000	-0.414709	0.485857	0.000000	0.638781	-169.069775	0.000000	0.000000	0.000000	0.000000	0.000000	2
82.193979	3.206148	0.000000	-0.175446	0.175430	0.000000	0.248107	-72.871117	0.000000	0.000000	0.000000	0.000000	0.000000	2
85.302971	3.206148	0.000000	-0.046649	0.079196	0.000000	0.091914	-39.724339	0.000000	0.000000	0.000000	0.000000	0.000000	2
88.411963	3.206148	0.000000	-0.046316	-0.030928	0.000000	0.055693	-25.733352	0.000000	0.000000	0.000000	0.000000	0.000000	1
91.520955	3.206148	0.000000	-0.037351	-0.043509	0.000000	0.057342	-6.349695	0.000000	0.000000	0.000000	0.000000	0.000000	2
94.629947	3.206148	0.000000	0.001522	-0.005045	0.000000	0.005270	-5.727881	0.000000	0.000000	0.000000	0.000000	0.000000	2
97.738939	3.206148	0.000000	0.032032	0.000446	0.000000	0.032035	-13.377493	0.000000	0.000000	0.000000	0.000000	0.000000	2
100.847931	3.206148	0.000000	0.011614	-0.000961	0.000000	0.011654	-13.189318	0.000000	0.000000	0.000000	0.000000	0.000000	1
103.956923	3.206148	0.000000	0.010317	-0.000965	0.000000	0.010362	-9.227953	0.000000	0.000000	0.000000	0.000000	0.000000	1
107.065915	3.206148	0.000000	0.002857	0.000878	0.000000	0.002989	-8.411235	0.000000	0.000000	0.000000	0.000000	0.000000	1
110.174908	3.206148	0.000000	-0.005477	0.002205	0.000000	0.005904	-6.454105	0.000000	0.000000	0.000000	0.000000	0.000000	1
113.283900	3.206148	0.000000	0.000365	0.001245	0.000000	0.001298	-2.006727	0.000000	0.000000	0.000000	0.000000	0.000000	1
116.392892	3.206148	0.000000	-0.001187	-0.000150	0.000000	0.001196	1.636947	0.000000	0.000000	0.000000	0.000000	0.000000	1
119.501884	3.206148	0.000000	-0.003566	0.000206	0.000000	0.003572	2.946456	0.000000	0.000000	0.000000	0.000000	0.000000	1
122.610876	3.206148	0.000000	-0.001884	0.000340	0.000000	0.001914	2.728007	0.000000	0.000000	0.000000	0.000000	0.000000	1
125.719868	3.206148	0.000000	-0.000135	0.000096	0.000000	0.000165	2.477764	0.000000	0.000000	0.000000	0.000000	0.000000	1
128.828860	3.206148	0.000000	0.002946	-0.000234	0.000000	0.002955	3.204091	0.000000	0.000000	0.000000	0.000000	0.000000	1
131.937852	3.206148	0.000000	0.001448	0.000173	0.000000	0.001458	3.528295	0.000000	0.000000	0.000000	0.000000	0.000000	1
135.046844	3.206148	0.000000	-0.003303	0.007762	0.000000	0.008436	1.875867	0.000000	0.000000	0.000000	0.000000	0.000000	1
138.155836	3.206148	0.000000	-0.001721	0.007740	0.000000	0.007929	0.510427	0.000000	0.000000	0.000000	0.000000	0.000000	1
141.264829	3.206148	0.000000	-0.003312	0.006288	0.000000	0.007107	0.386329	0.000000	0.000000	0.000000	0.000000	0.000000	1
144.373821	3.206148	0.000000	-0.004175	0.004891	0.000000	0.006431	-0.217759	0.000000	0.000000	0.000000	0.000000	0.000000	1
147.482813	3.206148	0.000000	-0.001022	0.002552	0.000000	0.002749	-0.388641	0.000000	0.000000	0.000000	0.000000	0.000000	1
150.591805	3.206148	0.000000	-0.002120	0.002330	0.000000	0.003151	0.802688	0.000000	0.000000	0.000000	0.000000	0.000000	1
153.700797	3.206148	0.000000	-0.008942	0.004991	0.000000	0.010241	0.984351	0.000000	0.000000	0.000000	0.000000	0.000000	1
156.809789	3.206148	0.000000	-0.007849	0.006350	0.000000	0.010096	-0.317112	0.000000	0.000000	0.000000	0.000000	0.000000	1
159.918781	3.206148	0.000000	-0.004599	0.005489	0.000000	0.007161	-0.878049	0.000000	0.000000	0.000000	0.000000	0.000000	1
4.469176	6.315140	0.000000	-0.002077	0.006991	0.000000	0.007293	0.424553	0.000000	0.000000	0.000000	0.000000	0.000000	1
7.578168	6.315140	0.000000	0.001694	0.007534	0.000000	0.007722	0.118533	0.000000	0.000000	0.000000	0.000000	0.000000	1
10.687160	6.315140	0.000000	0.003147	0.006883	0.000000	0.007568	-0.238992	0.000000	0.000000	0.000000	0.000000	0.000000	1
13.796152	6.315140	0.000000	0.001696	0.004716	0.000000	0.005012	0.613991	0.000000	0.000000	0.000000	0.000000	0.000000	1
16.905145	6.315140	0.000000	0.001192	0.009507	0.000000	0.009581	0.915859	0.000000	0.000000	0.000000	0.000000	0.000000	1
20.014137	6.315140	0.000000	0.002438	0.011619	0.000000	0.011872	-0.555757	0.000000	0.000000	0.000000	0.000000	0.000000	1
23.123129	6.315140	0.000000	0.005914	0.006631	0.000000	0.008885	-0.787833	0.000000	0.000000	0.000000	0.000000	0.000000	1
26.232121	6.315140	0.000000	0.011157	0.011415	0.000000	0.015962	-0.541772	0.000000	0.000000	0.000000	0.000000	0.000000	1
29.341113	6.315140	0.000000	0.009935	0.014033	0.000000	0.017193	-0.993503	0.000000	0.000000	0.000000	0.000000	0.000000	1
32.450105	6.315140	0.000000	0.005149	0.013703	0.000000	0.014638	-2.179689	0.000000	0.000000	0.000000	0.000000	0.000000	1
35.559097	6.315140	0.000000	0.002436	0.002376	0.000000	0.003402	-2.995748	0.000000	0.000000	0.000000	0.000000	0.000000	1
38.668089	6.315140	0.000000	0.009178	-0.009969	0.000000	0.013551	-1.509377	0.000000	0.000000	0.000000	0.000000	0.000000	1
41.777081	6.315140	0.000000	0.011164	-0.012281	0.000000	0.016597	0.596547	0.000000	0.000000	0.000000	0.000000	0.000000	1
44.886073	6.315140	0.000000	0.000864	-0.001567	0.000000	0.001789	0.662152	0.000000	0.000000	0.000000	0.000000	0.000000	1
47.995066	6.315140	0.000000	0.007156	0.002059	0.000000	0.007447	-1.588306	0.000000	0.000000	0.000000	0.000000	0.000000	1
51.104058	6.315140	0.000000	0.018523	0.000165	0.000000	0.018524	-2.021372	0.000000	0.000000	0.000000	0.000000	0.000000	1
54.213050	6.315140	0.000000	0.008319	0.000208	0.000000	0.008322	-0.429888	0.000000	0.000000	0.000000	0.000000	0.000000	1
57.322042	6.315140	0.000000	0.001383	0.000290	0.000000	0.001413	-1.186656	0.000000	0.000000	0.000000	0.000000	0.000000	1
60.431034	6.315140	0.000000	-0.028343	-0.026760	0.000000	0.038980	-0.017090	0.000000	0.000000	0.000000	0.000000	0.000000	1
63.540026	6.315140	0.000000	-0.016790	-0.031522	0.000000	0.035714	8.064134	0.000000	0.000000	0.000000	0.000000	0.000000	1
66.649018	6.315140	0.000000	-0.037306	-0.007791	0.000000	0.038110	81.080567	0.000000	0.000000	0.000000	0.000000	0.000000	2
69.758010	6.315140	0.000000	-0.173166	0.297087	0.000000	0.343871	185.968753	0.000000	0.000000	0.000000	0.000000	0.000000	2
72.867002	6.315140	0.000000	-0.557489	1.063916	0.000000	1.201129	62.348708	0.000000	0.000000	0.000000	0.000000	0.000000	2
75.975994	6.315140	0.000000	-0.518642	0.654992	0.000000	0.835466	-137.388373	0.000000	0.000000	0.000000	0.000000	0.000000	1
79.084987	6.315140	0.000000	-0.241692	0.205464	0.000000	0.317223	-122.792878	0.000000	0.000000	0.000000	0.000000	0.000000	1
82.193979	6.315140	0.000000	-0.059067	0.145395	0.000000	0.156935	-49.318725	0.000000	0.000000	0.000000	0.000000	0.000000	2
85.302971	6.315140	0.000000	-0.046982	0.111343	0.000000	0.120850	-30.615779	0.000000	0.000000	0.000000	0.000000	0.000000	1
88.411963	6.315140	0.000000	-0.028387	-0.008617	0.000000	0.029666	-18.896277	0.000000	0.000000	0.000000	0.000000	0.000000	1
91.520955	6.315140	0.000000	0.002559	-0.010537	0.000000	0.010843	-0.016972	0.000000	0.000000	0.000000	0.000000	0.000000	1
94.629947	6.315140	0.000000	0.059773	0.042535	0.000000	0.073363	-1.510864	0.000000	0.000000	0.000000	0.000000	0.000000	1
97.738939	6.315140	0.000000	0.048864	0.047521	0.000000	0.068161	-12.037932	0.000000	0.000000	0.000000	0.000000	0.000000	2
100.847931	6.315140	0.000000	0.052449	0.004840	0.000000	0.052672	-8.999387	0.000000	0.000000	0.000000	0.000000	0.000000	1
103.956923	6.315140	0.000000	0.036843	0.009939	0.000000	0.038160	-4.570720	0.000000	0.000000	0.000000	0.000000	0.000000	1
107.065915	6.315140	0.000000	0.023624	0.002896	0.000000	0.023801	-6.615727	0.000000	0.000000	0.000000	0.000000	0.000000	1
110.174908	6.315140	0.000000	0.018056	-0.006242	0.000000	0.019104	-4.365828	0.000000	0.000000	0.000000	0.000000	0.000000	1
113.283900	6.315140	0.000000	0.007376	-0.002892	0.000000	0.007923	-0.715340	0.000000	0.000000	0.000000	0.000000	0.000000	1
116.392892	6.315140	0.000000	-0.008117	0.001781	0.000000	0.008310	0.146287	0.000000	0.000000	0.000000	0.000000	0.000000	1
119.501884	6.315140	0.000000	-0.015210	0.000009	0.000000	0.015210	-0.347274	0.000000	0.000000	0.000000	0.000000	0.000000	1
122.610876	6.315140	0.000000	-0.012225	-0.002628	0.000000	0.012504	-0.140726	0.000000	0.000000	0.000000	0.000000	0.000000	1
125.719868	6.315140	0.000000	-0.004247	-0.002394	0.000000	0.004875	0.960934	0.000000	0.000000	0.000000	0.000000	0.000000	1
128.828860	6.315140	0.000000	-0.006279	0.000970	0.000000	0.006353	2.525551	0.000000	0.000000	0.000000	0.000000	0.000000	1
131.937852	6.315140	0.000000	-0.007277	0.006088	0.000000	0.009488	3.317030	0.000000	0.000000	0.000000	0.000000	0.000000	1
135.046844	6.315140	0.000000	-0.004419	0.009062	0.000000	0.010082	1.829987	0.000000	0.000000	0.000000	0.000000	0.000000	1
138.155836	6.315140	0.000000	-0.005046	0.007569	0.000000	0.009096	0.142014	0.000000	0.000000	0.000000	0.000000	0.000000	1
141.264829	6.315140	0.000000	-0.006139	0.006290	0.000000	0.008790	-0.114531	0.000000	0.000000	0.000000	0.000000	0.000000	1
144.373821	6.315140	0.000000	-0.005233	0.005184	0.000000	0.007366	-0.292860	0.000000	0.000000	0.000000	0.000000	0.000000	1
147.482813	6.315140	0.000000	-0.001335	0.002064	0.000000	0.002458	0.087090	0.000000	0.000000	0.000000	0.000000	0.000000	1
150.591805	6.315140	0.000000	-0.001020	0.002330	0.000000	0.002544	0.974630	0.000000	0.000000	0.000000	0.000000	0.000000	1
153.700797	6.315140	0.000000	-0.010341	0.010097	0.000000	0.014453	0.628853	0.000000	0.000000	0.000000	0.000000	0.000000	1
156.809789	6.315140	0.000000	-0.008118	0.008586	0.000000	0.011816	-0.318983	0.000000	0.000000	0.000000	0.000000	0.000000	1
159.918781	6.315140	0.000000	-0.003307	0.005011	0.000000	0.006004	-0.482531	0.000000	0.000000	0.000000	0.000000	0.000000	1
4.469176	9.424132	0.000000	-0.001391	0.007273	0.000000	0.007405	-0.124064	0.000000	0.000000	0.000000	0.000000	0.000000	1
7.578168	9.424132	0.000000	0.001893	0.007719	0.000000	0.007947	-0.025677	0.000000	0.000000	0.000000	0.000000	0.000000	1
10.687160	9.424132	0.000000	0.003098	0.006893	0.000000	0.007557	-0.578536	0.000000	0.000000	0.000000	0.000000	0.000000	1
13.796152	9.424132	0.000000	-0.000681	0.002991	0.000000	0.003068	-0.120053	0.000000	0.000000	0.000000	0.000000	0.000000	1
16.905145	9.424132	0.000000	0.003793	0.009071	0.000000	0.009832	0.458310	0.000000	0.000000	0.000000	0.000000	0.000000	1
20.014137	9.424132	0.000000	0.004951	0.010203	0.000000	0.011341	-0.543618	0.000000	0.000000	0.000000	0.000000	0.000000	1
23.123129	9.424132	0.000000	0.010765	0.009483	0.000000	0.014346	-0.042214	0.000000	0.000000	0.000000	0.000000	0.000000	1
26.232121	9.424132	0.000000	0.010831	0.013105	0.000000	0.017001	1.406516	0.000000	0.000000	0.000000	0.000000	0.000000	1
29.341113	9.424132	0.000000	0.009321	0.014710	0.000000	0.017415	1.479209	0.000000	0.000000	0.000000	0.000000	0.000000	1
32.450105	9.424132	0.000000	0.008429	0.014322	0.000000	0.016618	-0.332696	0.000000	0.000000	0.000000	0.000000	0.000000	1
35.559097	9.424132	0.000000	0.008895	0.011088	0.000000	0.014215	-1.847914	0.000000	0.000000	0.000000	0.000000	0.000000	1
38.668089	9.424132	0.000000	0.002764	0.000911	0.000000	0.002911	-0.309103	0.000000	0.000000	0.000000	0.000000	0.000000	1
41.777081	9.424132	0.000000	0.002807	0.000973	0.000000	0.002971	1.565299	0.000000	0.000000	0.000000	0.000000	0.000000	1
44.886073	9.424132	0.000000	0.000366	0.002328	0.000000	0.002357	1.582174	0.000000	0.000000	0.000000	0.000000	0.000000	1
47.995066	9.424132	0.000000	0.005787	0.003803	0.000000	0.006925	1.348653	0.000000	0.000000	0.000000	0.000000	0.000000	1
51.104058	9.424132	0.000000	0.016863	-0.002245	0.000000	0.017012	3.185267	0.000000	0.000000	0.000000	0.000000	0.000000	1
54.213050	9.424132	0.000000	0.001043	0.003046	0.000000	0.003220	3.534717	0.000000	0.000000	0.000000	0.000000	0.000000	1
57.322042	9.424132	0.000000	-0.004438	0.002942	0.000000	0.005325	-0.118081	0.000000	0.000000	0.000000	0.000000	0.000000	1
60.431034	9.424132	0.000000	-0.027252	-0.005991	0.000000	0.027903	-2.785645	0.000000	0.000000	0.000000	0.000000	0.000000	1
63.540026	9.424132	0.000000	-0.029638	-0.020637	0.000000	0.036115	3.117279	0.000000	0.000000	0.000000	0.000000	0.000000	1
66.649018	9.424132	0.000000	-0.066682	0.003762	0.000000	0.066788	116.681993	0.000000	0.000000	0.000000	0.000000	0.000000	2
69.758010	9.424132	0.000000	-0.571992	0.699807	0.000000	0.903827	159.481109	0.000000	0.000000	0.000000	0.000000	0.000000	2
72.867002	9.424132	0.000000	-0.529807	0.712451	0.000000	0.887852	-36.131993	0.000000	0.000000	0.000000	0.000000	0.000000	2
75.975994	9.424132	0.000000	-0.370925	0.275845	0.000000	0.462251	-121.597889	0.000000	0.000000	0.000000	0.000000	0.000000	1
79.084987	9.424132	0.000000	-0.173548	0.193711	0.000000	0.260082	-50.879889	0.000000	0.000000	0.000000	0.000000	0.000000	2
82.193979	9.424132	0.000000	-0.054618	0.122342	0.000000	0.133980	-19.375549	0.000000	0.000000	0.000000	0.000000	0.000000	2
85.302971	9.424132	0.000000	-0.042104	0.049322	0.000000	0.064849	-13.407307	0.000000	0.000000	0.000000	0.000000	0.000000	1
88.411963	9.424132	0.000000	-0.036557	0.014925	0.000000	0.039487	-6.900813	0.000000	0.000000	0.000000	0.000000	0.000000	1
91.520955	9.424132	0.000000	0.008865	0.016077	0.000000	0.018359	5.995079	0.000000	0.000000	0.000000	0.000000	0.000000	1
94.629947	9.424132	0.000000	0.081140	0.068125	0.000000	0.105946	1.807870	0.000000	0.000000	0.000000	0.000000	0.000000	1
97.738939	9.424132	0.000000	0.075947	0.067795	0.000000	0.101804	-12.440906	0.000000	0.000000	0.000000	0.000000	0.000000	1
100.847931	9.424132	0.000000	0.034370	0.030227	0.000000	0.045771	-9.850629	0.000000	0.000000	0.000000	0.000000	0.000000	1
103.956923	9.424132	0.000000	0.025118	0.024766	0.000000	0.035274	-2.849894	0.000000	0.000000	0.000000	0.000000	0.000000	1
107.065915	9.424132	0.000000	0.033429	0.001524	0.000000	0.033464	-1.994822	0.000000	0.000000	0.000000	0.000000	0.000000	1
110.174908	9.424132	0.000000	0.025013	-0.004154	0.000000	0.025356	-0.679140	0.000000	0.000000	0.000000	0.000000	0.000000	1
113.283900	9.424132	0.000000	0.007446	0.002779	0.000000	0.007948	0.248725	0.000000	0.000000	0.000000	0.000000	0.000000	1
116.392892	9.424132	0.000000	-0.004709	0.005493	0.000000	0.007235	-0.888363	0.000000	0.000000	0.000000	0.000000	0.000000	1
119.501884	9.424132	0.000000	-0.004367	0.000888	0.000000	0.004457	-1.107845	0.000000	0.000000	0.000000	0.000000	0.000000	1
122.610876	9.424132	0.000000	0.000204	0.002145	0.000000	0.002155	-0.001487	0.000000	0.000000	0.000000	0.000000	0.000000	1
125.719868	9.424132	0.000000	-0.001875	0.003938	0.000000	0.004362	0.317614	0.000000	0.000000	0.000000	0.000000	0.000000	1
128.828860	9.424132	0.000000	-0.008169	0.006915	0.000000	0.010703	1.292138	0.000000	0.000000	0.000000	0.000000	0.000000	1
131.937852	9.424132	0.000000	-0.014738	0.009555	0.000000	0.017564	1.621167	0.000000	0.000000	0.000000	0.000000	0.000000	1
135.046844	9.424132	0.000000	-0.015208	0.009846	0.000000	0.018117	0.059146	0.000000	0.000000	0.000000	0.000000	0.000000	1
138.155836	9.424132	0.000000	-0.004365	0.001904	0.000000	0.004762	-0.898368	0.000000	0.000000	0.000000	0.000000	0.000000	1
141.264829	9.424132	0.000000	-0.004228	0.002287	0.000000	0.004807	-0.471546	0.000000	0.000000	0.000000	0.000000	0.000000	1
144.373821	9.424132	0.000000	-0.003945	0.002427	0.000000	0.004631	-0.204023	0.000000	0.000000	0.000000	0.000000	0.000000	1
147.482813	9.424132	0.000000	-0.003274	0.004485	0.000000	0.005553	0.372819	0.000000	0.000000	0.000000	0.000000	0.000000	1
150.591805	9.424132	0.000000	-0.002775	0.007934	0.000000	0.008406	0.650771	0.000000	0.000000	0.000000	0.000000	0.000000	1
153.700797	9.424132	0.000000	-0.008617	0.006986	0.000000	0.011093	0.133842	0.000000	0.000000	0.000000	0.000000	0.000000	1
156.809789	9.424132	0.000000	-0.008171	0.006719	0.000000	0.010579	-0.204583	0.000000	0.000000	0.000000	0.000000	0.000000	1
159.918781	9.424132	0.000000	-0.007519	0.005489	0.000000	0.009309	-0.039197	0.000000	0.000000	0.000000	0.000000	0.000000	1
4.469176	12.533124	0.000000	0.002453	0.004238	0.000000	0.004897	0.070258	0.000000	0.000000	0.000000	0.000000	0.000000	1
7.578168	12.533124	0.000000	-0.000304	0.003792	0.000000	0.003804	0.398424	0.000000	0.000000	0.000000	0.000000	0.000000	1
10.687160	12.533124	0.000000	0.006456	0.008308	0.000000	0.010521	-0.077509	0.000000	0.000000	0.000000	0.000000	0.000000	1
13.796152	12.533124	0.000000	0.004474	0.009072	0.000000	0.010116	-0.347685	0.000000	0.000000	0.000000	0.000000	0.000000	1
16.905145	12.533124	0.000000	0.003360	0.009377	0.000000	0.009961	0.217648	0.000000	0.000000	0.000000	0.000000	0.000000	1
20.014137	12.533124	0.000000	0.005308	0.009128	0.000000	0.010559	0.420098	0.000000	0.000000	0.000000	0.000000	0.000000	1
23.123129	12.533124	0.000000	0.009483	0.009383	0.000000	0.013341	0.620281	0.000000	0.000000	0.000000	0.000000	0.000000	1
26.232121	12.533124	0.000000	0.007983	0.009313	0.000000	0.012267	0.931592	0.000000	0.000000	0.000000	0.000000	0.000000	1
29.341113	12.533124	0.000000	-0.002697	0.011101	0.000000	0.011424	1.017126	0.000000	0.000000	0.000000	0.000000	0.000000	1
32.450105	12.533124	0.000000	0.002292	0.010089	0.000000	0.010347	-0.472369	0.000000	0.000000	0.000000	0.000000	0.000000	1
35.559097	12.533124	0.000000	0.003417	0.004362	0.000000	0.005542	-0.641233	0.000000	0.000000	0.000000	0.000000	0.000000	1
38.668089	12.533124	0.000000	0.000217	0.004765	0.000000	0.004770	-0.096511	0.000000	0.000000	0.000000	0.000000	0.000000	1
41.777081	12.533124	0.000000	0.000115	0.003572	0.000000	0.003574	-1.017691	0.000000	0.000000	0.000000	0.000000	0.000000	1
44.886073	12.533124	0.000000	0.000252	0.000790	0.000000	0.000829	0.492629	0.000000	0.000000	0.000000	0.000000	0.000000	1
47.995066	12.533124	0.000000	-0.002816	0.000677	0.000000	0.002896	1.593742	0.000000	0.000000	0.000000	0.000000	0.000000	1
51.104058	12.533124	0.000000	-0.008605	-0.005938	0.000000	0.010455	3.520826	0.000000	0.000000	0.000000	0.000000	0.000000	1
54.213050	12.533124	0.000000	-0.004816	0.005901	0.000000	0.007617	4.784942	0.000000	0.000000	0.000000	0.000000	0.000000	1
57.322042	12.533124	0.000000	-0.009725	0.006973	0.000000	0.011967	1.010899	0.000000	0.000000	0.000000	0.000000	0.000000	1
60.431034	12.533124	0.000000	-0.025069	0.015930	0.000000	0.029702	-4.677172	0.000000	0.000000	0.000000	0.000000	0.000000	1
63.540026	12.533124	0.000000	-0.025270	0.003616	0.000000	0.025528	-4.839724	0.000000	0.000000	0.000000	0.000000	0.000000	1
66.649018	12.533124	0.000000	-0.063145	0.015460	0.000000	0.065010	97.388688	0.000000	0.000000	0.000000	0.000000	0.000000	1
69.758010	12.533124	0.000000	-0.517638	0.731604	0.000000	0.896210	72.466291	0.000000	0.000000	0.000000	0.000000	0.000000	2
72.867002	12.533124	0.000000	-0.553142	0.782553	0.000000	0.958309	-122.843106	0.000000	0.000000	0.000000	0.000000	0.000000	1
75.975994	12.533124	0.000000	-0.255884	0.249927	0.000000	0.357687	-107.231912	0.000000	0.000000	0.000000	0.000000	0.000000	1
79.084987	12.533124	0.000000	-0.195384	0.230273	0.000000	0.301994	-18.175387	0.000000	0.000000	0.000000	0.000000	0.000000	1
82.193979	12.533124	0.000000	-0.095323	0.120161	0.000000	0.153379	-9.200836	0.000000	0.000000	0.000000	0.000000	0.000000	2
85.302971	12.533124	0.000000	-0.057804	0.094236	0.000000	0.110552	-5.470010	0.000000	0.000000	0.000000	0.000000	0.000000	2
88.411963	12.533124	0.000000	-0.043202	0.082826	0.000000	0.093416	-5.072148	0.000000	0.000000	0.000000	0.000000	0.000000	2
91.520955	12.533124	0.000000	0.036962	0.104920	0.000000	0.111241	-0.098871	0.000000	0.000000	0.000000	0.000000	0.000000	1
94.629947	12.533124	0.000000	0.067080	0.135682	0.000000	0.151358	-14.563217	0.000000	0.000000	0.000000	0.000000	0.000000	1
97.738939	12.533124	0.000000	0.100947	0.089490	0.000000	0.134903	-26.025399	0.000000	0.000000	0.000000	0.000000	0.000000	1
100.847931	12.533124	0.000000	0.062331	0.061095	0.000000	0.087280	-17.342788	0.000000	0.000000	0.000000	0.000000	0.000000	1
103.956923	12.533124	0.000000	0.030462	0.033590	0.000000	0.045345	-4.484178	0.000000	0.000000	0.000000	0.000000	0.000000	1
107.065915	12.533124	0.000000	0.030934	0.053993	0.000000	0.062227	3.229612	0.000000	0.000000	0.000000	0.000000	0.000000	1
110.174908	12.533124	0.000000	0.015209	0.063388	0.000000	0.065188	-5.117106	0.000000	0.000000	0.000000	0.000000	0.000000	1
113.283900	12.533124	0.000000	-0.004894	0.029727	0.000000	0.030127	-11.126925	0.000000	0.000000	0.000000	0.000000	0.000000	1
116.392892	12.533124	0.000000	-0.003667	0.019322	0.000000	0.019667	-10.154842	0.000000	0.000000	0.000000	0.000000	0.000000	1
119.501884	12.533124	0.000000	-0.012506	0.007846	0.000000	0.014764	-4.791910	0.000000	0.000000	0.000000	0.000000	0.000000	1
122.610876	12.533124	0.000000	-0.012028	0.012928	0.000000	0.017658	0.050576	0.000000	0.000000	0.000000	0.000000	0.000000	1
125.719868	12.533124	0.000000	-0.004177	0.007281	0.000000	0.008394	-0.465244	0.000000	0.000000	0.000000	0.000000	0.000000	1
128.828860	12.533124	0.000000	-0.009004	0.005301	0.000000	0.010449	-0.194977	0.000000	0.000000	0.000000	0.000000	0.000000	1
131.937852	12.533124	0.000000	-0.013637	0.007963	0.000000	0.015791	-0.929641	0.000000	0.000000	0.000000	0.000000	0.000000	1
135.046844	12.533124	0.000000	-0.012955	0.007689	0.000000	0.015065	-1.845040	0.000000	0.000000	0.000000	0.000000	0.000000	1
138.155836	12.533124	0.000000	-0.003049	0.001821	0.000000	0.003551	-1.074016	0.000000	0.000000	0.000000	0.000000	0.000000	1
141.264829	12.533124	0.000000	-0.002814	0.002019	0.000000	0.003463	-0.055355	0.000000	0.000000	0.000000	0.000000	0.000000	1
144.373821	12.533124	0.000000	-0.004153	0.001160	0.000000	0.004312	0.073355	0.000000	0.000000	0.000000	0.000000	0.000000	1
147.482813	12.533124	0.000000	-0.001437	0.002159	0.000000	0.002593	0.246934	0.000000	0.000000	0.000000	0.000000	0.000000	1
150.591805	12.533124	0.000000	-0.001676	0.002490	0.000000	0.003002	0.131889	0.000000	0.000000	0.000000	0.000000	0.000000	1
153.700797	12.533124	0.000000	-0.007044	0.007191	0.000000	0.010066	-0.541706	0.000000	0.000000	0.000000	0.000000	0.000000	1
156.809789	12.533124	0.000000	-0.008195	0.007854	0.000000	0.011351	-0.699712	0.000000	0.000000	0.000000	0.000000	0.000000	1
159.918781	12.533124	0.000000	-0.008238	0.008395	0.000000	0.011761	-0.229015	0.000000	0.000000	0.000000	0.000000	0.000000	1
4.469176	15.642117	0.000000	-0.000378	0.006269	0.000000	0.006281	0.098580	0.000000	0.000000	0.000000	0.000000	0.000000	1
7.578168	15.642117	0.000000	-0.000279	0.006429	0.000000	0.006435	0.233164	0.000000	0.000000	0.000000	0.000000	0.000000	1
10.687160	15.642117	0.000000	0.006360	0.008348	0.000000	0.010495	0.404182	0.000000	0.000000	0.000000	0.000000	0.000000	1
13.796152	15.642117	0.000000	0.004731	0.008431	0.000000	0.009668	-0.203614	0.000000	0.000000	0.000000	0.000000	0.000000	1
16.905145	15.642117	0.000000	0.001344	0.007021	0.000000	0.007148	-0.422657	0.000000	0.000000	0.000000	0.000000	0.000000	1
20.014137	15.642117	0.000000	0.003113	0.005194	0.000000	0.006055	0.610475	0.000000	0.000000	0.000000	0.000000	0.000000	1
23.123129	15.642117	0.000000	0.008229	0.008381	0.000000	0.011745	0.731679	0.000000	0.000000	0.000000	0.000000	0.000000	1
26.232121	15.642117	0.000000	0.007193	0.006801	0.000000	0.009899	-0.010531	0.000000	0.000000	0.000000	0.000000	0.000000	1
29.341113	15.642117	0.000000	0.004307	0.008063	0.000000	0.009142	-0.016777	0.000000	0.000000	0.000000	0.000000	0.000000	1
32.450105	15.642117	0.000000	0.009438	0.016674	0.000000	0.019160	-1.981004	0.000000	0.000000	0.000000	0.000000	0.000000	1
35.559097	15.642117	0.000000	0.008860	0.010384	0.000000	0.013650	-0.983526	0.000000	0.000000	0.000000	0.000000	0.000000	1
38.668089	15.642117	0.000000	0.001947	0.024906	0.000000	0.024982	-0.456703	0.000000	0.000000	0.000000	0.000000	0.000000	1
41.777081	15.642117	0.000000	0.002597	0.017800	0.000000	0.017988	-3.331767	0.000000	0.000000	0.000000	0.000000	0.000000	1
44.886073	15.642117	0.000000	0.001465	0.005989	0.000000	0.006165	0.620462	0.000000	0.000000	0.000000	0.000000	0.000000	1
47.995066	15.642117	0.000000	-0.009772	0.019440	0.000000	0.021758	2.497631	0.000000	0.000000	0.000000	0.000000	0.000000	1
51.104058	15.642117	0.000000	-0.013867	0.002907	0.000000	0.014169	3.847885	0.000000	0.000000	0.000000	0.000000	0.000000	1
54.213050	15.642117	0.000000	-0.002171	0.017084	0.000000	0.017222	7.017024	0.000000	0.000000	0.000000	0.000000	0.000000	2
57.322042	15.642117	0.000000	-0.007342	0.050849	0.000000	0.051376	0.445664	0.000000	0.000000	0.000000	0.000000	0.000000	1
60.431034	15.642117	0.000000	-0.004844	0.044595	0.000000	0.044857	-6.827724	0.000000	0.000000	0.000000	0.000000	0.000000	1
63.540026	15.642117	0.000000	0.002758	0.039117	0.000000	0.039214	5.534239	0.000000	0.000000	0.000000	0.000000	0.000000	1
66.649018	15.642117	0.000000	0.006759	0.076047	0.000000	0.076347	102.101797	0.000000	0.000000	0.000000	0.000000	0.000000	1
69.758010	15.642117	0.000000	-0.115487	0.920734	0.000000	0.927948	44.218477	0.000000	0.000000	0.000000	0.000000	0.000000	2
72.867002	15.642117	0.000000	-0.334598	0.817214	0.000000	0.883060	-141.005442	0.000000	0.000000	0.000000	0.000000	0.000000	1
75.975994	15.642117	0.000000	-0.229225	0.241320	0.000000	0.332835	-93.483600	0.000000	0.000000	0.000000	0.000000	0.000000	1
79.084987	15.642117	0.000000	-0.197363	0.228239	0.000000	0.301737	-4.406173	0.000000	0.000000	0.000000	0.000000	0.000000	1
82.193979	15.642117	0.000000	-0.131423	0.219560	0.000000	0.255888	-10.815873	0.000000	0.000000	0.000000	0.000000	0.000000	2
85.302971	15.642117	0.000000	-0.080366	0.200169	0.000000	0.215700	-18.125831	0.000000	0.000000	0.000000	0.000000	0.000000	2
88.411963	15.642117	0.000000	-0.024985	0.123839	0.000000	0.126335	-9.853367	0.000000	0.000000	0.000000	0.000000	0.000000	1
91.520955	15.642117	0.000000	0.097686	0.159595	0.000000	0.187118	6.132227	0.000000	0.000000	0.000000	0.000000	0.000000	2
94.629947	15.642117	0.000000	0.215357	0.285901	0.000000	0.357935	-15.709605	0.000000	0.000000	0.000000	0.000000	0.000000	1
97.738939	15.642117	0.000000	0.126087	0.183915	0.000000	0.222986	-37.952429	0.000000	0.000000	0.000000	0.000000	0.000000	2
100.847931	15.642117	0.000000	0.073183	0.098978	0.000000	0.123095	-23.150341	0.000000	0.000000	0.000000	0.000000	0.000000	1
103.956923	15.642117	0.000000	0.047733	0.057776	0.000000	0.074943	-0.640461	0.000000	0.000000	0.000000	0.000000	0.000000	1
107.065915	15.642117	0.000000	0.030912	0.111880	0.000000	0.116072	7.187366	0.000000	0.000000	0.000000	0.000000	0.000000	1
110.174908	15.642117	0.000000	0.030973	0.130966	0.000000	0.134579	-9.529903	0.000000	0.000000	0.000000	0.000000	0.000000	1
113.283900	15.642117	0.000000	0.055506	0.089346	0.000000	0.105184	-20.703611	0.000000	0.000000	0.000000	0.000000	0.000000	2
116.392892	15.642117	0.000000	0.025657	0.065147	0.000000	0.070018	-21.018710	0.000000	0.000000	0.000000	0.000000	0.000000	2
119.501884	15.642117	0.000000	0.007994	0.003581	0.000000	0.008759	-11.539679	0.000000	0.000000	0.000000	0.000000	0.000000	1