TITLE = "PIV Result  2419 "
VARIABLES = "X (mm)""Y (mm)""Z (mm)""U (m/s)""V (m/s)""W (m/s)""Speed (m/s)""Vorticity""U-std""V-std""W-std""Speed-std""Vorticity-std""Flag"
ZONE T="ZONE 2419 "
I= 51 , J= 16 , K= 1 , F=POINT
DT=(DOUBLE DOUBLE DOUBLE DOUBLE DOUBLE DOUBLE DOUBLE DOUBLE DOUBLE DOUBLE DOUBLE DOUBLE DOUBLE DOUBLE)
4.469176	3.206148	0.000000	0.004369	0.009476	0.000000	0.010434	0.507363	0.000000	0.000000	0.000000	0.000000	0.000000	1
7.578168	3.206148	0.000000	0.005482	0.009736	0.000000	0.011173	-0.261687	0.000000	0.000000	0.000000	0.000000	0.000000	1
10.687160	3.206148	0.000000	0.000427	0.005583	0.000000	0.005600	-0.746414	0.000000	0.000000	0.000000	0.000000	0.000000	1
13.796152	3.206148	0.000000	-0.000325	0.002608	0.000000	0.002628	1.732879	0.000000	0.000000	0.000000	0.000000	0.000000	1
16.905145	3.206148	0.000000	0.013074	0.015938	0.000000	0.020614	3.910313	0.000000	0.000000	0.000000	0.000000	0.000000	1
20.014137	3.206148	0.000000	0.004593	0.017628	0.000000	0.018216	2.339735	0.000000	0.000000	0.000000	0.000000	0.000000	1
23.123129	3.206148	0.000000	0.005142	0.017184	0.000000	0.017936	1.048465	0.000000	0.000000	0.000000	0.000000	0.000000	1
26.232121	3.206148	0.000000	0.012651	0.017121	0.000000	0.021288	-0.810366	0.000000	0.000000	0.000000	0.000000	0.000000	1
29.341113	3.206148	0.000000	0.002238	0.009445	0.000000	0.009706	-2.054793	0.000000	0.000000	0.000000	0.000000	0.000000	1
32.450105	3.206148	0.000000	0.003273	0.006515	0.000000	0.007291	-1.637927	0.000000	0.000000	0.000000	0.000000	0.000000	1
35.559097	3.206148	0.000000	0.001622	0.001786	0.000000	0.002413	-2.499559	0.000000	0.000000	0.000000	0.000000	0.000000	1
38.668089	3.206148	0.000000	0.001722	0.001051	0.000000	0.002017	-2.743081	0.000000	0.000000	0.000000	0.000000	0.000000	1
41.777081	3.206148	0.000000	-0.000515	0.000447	0.000000	0.000681	-2.769607	0.000000	0.000000	0.000000	0.000000	0.000000	1
44.886073	3.206148	0.000000	-0.001212	0.000331	0.000000	0.001257	-2.568367	0.000000	0.000000	0.000000	0.000000	0.000000	1
47.995066	3.206148	0.000000	-0.000154	0.000544	0.000000	0.000565	-0.807794	0.000000	0.000000	0.000000	0.000000	0.000000	1
51.104058	3.206148	0.000000	-0.000076	0.000865	0.000000	0.000868	1.350812	0.000000	0.000000	0.000000	0.000000	0.000000	1
54.213050	3.206148	0.000000	0.001880	-0.000355	0.000000	0.001913	2.130653	0.000000	0.000000	0.000000	0.000000	0.000000	1
57.322042	3.206148	0.000000	0.001680	-0.001607	0.000000	0.002325	0.306742	0.000000	0.000000	0.000000	0.000000	0.000000	1
60.431034	3.206148	0.000000	0.002276	-0.000947	0.000000	0.002466	-1.369266	0.000000	0.000000	0.000000	0.000000	0.000000	1
63.540026	3.206148	0.000000	0.000062	0.000397	0.000000	0.000402	-1.513858	0.000000	0.000000	0.000000	0.000000	0.000000	1
66.649018	3.206148	0.000000	-0.001408	0.000373	0.000000	0.001457	-1.850928	0.000000	0.000000	0.000000	0.000000	0.000000	1
69.758010	3.206148	0.000000	0.001961	-0.000314	0.000000	0.001986	3.374730	0.000000	0.000000	0.000000	0.000000	0.000000	1
72.867002	3.206148	0.000000	0.033396	0.038340	0.000000	0.050846	2.377469	0.000000	0.000000	0.000000	0.000000	0.000000	1
75.975994	3.206148	0.000000	0.029634	0.034239	0.000000	0.045282	-8.412235	0.000000	0.000000	0.000000	0.000000	0.000000	1
79.084987	3.206148	0.000000	0.006288	-0.005569	0.000000	0.008400	-2.570066	0.000000	0.000000	0.000000	0.000000	0.000000	1
82.193979	3.206148	0.000000	0.022355	0.019674	0.000000	0.029780	15.352988	0.000000	0.000000	0.000000	0.000000	0.000000	1
85.302971	3.206148	0.000000	0.032485	0.114508	0.000000	0.119027	55.146229	0.000000	0.000000	0.000000	0.000000	0.000000	2
88.411963	3.206148	0.000000	0.262794	0.385016	0.000000	0.466153	106.804917	0.000000	0.000000	0.000000	0.000000	0.000000	2
91.520955	3.206148	0.000000	0.492929	0.601567	0.000000	0.777729	48.268806	0.000000	0.000000	0.000000	0.000000	0.000000	1
94.629947	3.206148	0.000000	0.513062	0.480120	0.000000	0.702672	-33.605482	0.000000	0.000000	0.000000	0.000000	0.000000	1
97.738939	3.206148	0.000000	0.510452	0.428010	0.000000	0.666149	-54.375577	0.000000	0.000000	0.000000	0.000000	0.000000	2
100.847931	3.206148	0.000000	0.569529	0.397236	0.000000	0.694377	-95.590501	0.000000	0.000000	0.000000	0.000000	0.000000	2
103.956923	3.206148	0.000000	0.293802	0.194466	0.000000	0.352330	-129.572690	0.000000	0.000000	0.000000	0.000000	0.000000	2
107.065915	3.206148	0.000000	0.000127	-0.001065	0.000000	0.001072	-74.499922	0.000000	0.000000	0.000000	0.000000	0.000000	1
110.174908	3.206148	0.000000	-0.000878	-0.001101	0.000000	0.001409	-4.880955	0.000000	0.000000	0.000000	0.000000	0.000000	1
113.283900	3.206148	0.000000	0.001625	0.000562	0.000000	0.001719	0.488280	0.000000	0.000000	0.000000	0.000000	0.000000	1
116.392892	3.206148	0.000000	0.002341	0.001793	0.000000	0.002948	1.048582	0.000000	0.000000	0.000000	0.000000	0.000000	1
119.501884	3.206148	0.000000	0.000771	0.000938	0.000000	0.001214	1.559827	0.000000	0.000000	0.000000	0.000000	0.000000	1
122.610876	3.206148	0.000000	-0.000742	-0.000670	0.000000	0.001000	2.305011	0.000000	0.000000	0.000000	0.000000	0.000000	1
125.719868	3.206148	0.000000	-0.000916	-0.000819	0.000000	0.001228	2.152969	0.000000	0.000000	0.000000	0.000000	0.000000	1
128.828860	3.206148	0.000000	0.000780	0.000439	0.000000	0.000895	1.567756	0.000000	0.000000	0.000000	0.000000	0.000000	1
131.937852	3.206148	0.000000	-0.000368	0.000730	0.000000	0.000817	1.333128	0.000000	0.000000	0.000000	0.000000	0.000000	1
135.046844	3.206148	0.000000	-0.001485	0.003530	0.000000	0.003830	0.729568	0.000000	0.000000	0.000000	0.000000	0.000000	1
138.155836	3.206148	0.000000	-0.003932	0.004143	0.000000	0.005712	0.689042	0.000000	0.000000	0.000000	0.000000	0.000000	1
141.264829	3.206148	0.000000	-0.001088	0.005252	0.000000	0.005364	1.145988	0.000000	0.000000	0.000000	0.000000	0.000000	1
144.373821	3.206148	0.000000	-0.000199	0.005350	0.000000	0.005354	1.457988	0.000000	0.000000	0.000000	0.000000	0.000000	1
147.482813	3.206148	0.000000	-0.006258	0.008312	0.000000	0.010405	1.521367	0.000000	0.000000	0.000000	0.000000	0.000000	1
150.591805	3.206148	0.000000	-0.008061	0.009662	0.000000	0.012583	0.458791	0.000000	0.000000	0.000000	0.000000	0.000000	1
153.700797	3.206148	0.000000	-0.000823	0.002274	0.000000	0.002418	0.372584	0.000000	0.000000	0.000000	0.000000	0.000000	1
156.809789	3.206148	0.000000	-0.002784	0.003638	0.000000	0.004581	0.711808	0.000000	0.000000	0.000000	0.000000	0.000000	1
159.918781	3.206148	0.000000	-0.004663	0.004138	0.000000	0.006234	0.284784	0.000000	0.000000	0.000000	0.000000	0.000000	1
4.469176	6.315140	0.000000	0.003372	0.006478	0.000000	0.007303	0.989378	0.000000	0.000000	0.000000	0.000000	0.000000	1
7.578168	6.315140	0.000000	0.005562	0.008456	0.000000	0.010121	0.055404	0.000000	0.000000	0.000000	0.000000	0.000000	1
10.687160	6.315140	0.000000	0.000000	0.005852	0.000000	0.005852	-1.372256	0.000000	0.000000	0.000000	0.000000	0.000000	1
13.796152	6.315140	0.000000	-0.000635	0.005216	0.000000	0.005255	-0.732200	0.000000	0.000000	0.000000	0.000000	0.000000	1
16.905145	6.315140	0.000000	-0.002094	0.000833	0.000000	0.002253	1.086331	0.000000	0.000000	0.000000	0.000000	0.000000	1
20.014137	6.315140	0.000000	0.001275	0.004862	0.000000	0.005026	0.960094	0.000000	0.000000	0.000000	0.000000	0.000000	1
23.123129	6.315140	0.000000	0.007607	0.009345	0.000000	0.012050	0.945529	0.000000	0.000000	0.000000	0.000000	0.000000	1
26.232121	6.315140	0.000000	0.013191	0.020560	0.000000	0.024428	0.191322	0.000000	0.000000	0.000000	0.000000	0.000000	1
29.341113	6.315140	0.000000	0.003288	0.011602	0.000000	0.012059	-1.049721	0.000000	0.000000	0.000000	0.000000	0.000000	1
32.450105	6.315140	0.000000	0.005140	0.010121	0.000000	0.011351	-1.205764	0.000000	0.000000	0.000000	0.000000	0.000000	1
35.559097	6.315140	0.000000	0.007427	0.009481	0.000000	0.012044	-2.211006	0.000000	0.000000	0.000000	0.000000	0.000000	1
38.668089	6.315140	0.000000	0.008661	0.004917	0.000000	0.009960	-2.006871	0.000000	0.000000	0.000000	0.000000	0.000000	1
41.777081	6.315140	0.000000	0.008504	0.005410	0.000000	0.010079	-1.566128	0.000000	0.000000	0.000000	0.000000	0.000000	1
44.886073	6.315140	0.000000	0.006779	0.004162	0.000000	0.007955	-1.673763	0.000000	0.000000	0.000000	0.000000	0.000000	1
47.995066	6.315140	0.000000	0.003653	0.002182	0.000000	0.004255	1.756684	0.000000	0.000000	0.000000	0.000000	0.000000	1
51.104058	6.315140	0.000000	-0.003507	0.005758	0.000000	0.006742	5.334967	0.000000	0.000000	0.000000	0.000000	0.000000	1
54.213050	6.315140	0.000000	-0.011549	0.003396	0.000000	0.012038	3.417311	0.000000	0.000000	0.000000	0.000000	0.000000	1
57.322042	6.315140	0.000000	-0.002487	0.000270	0.000000	0.002502	0.169978	0.000000	0.000000	0.000000	0.000000	0.000000	1
60.431034	6.315140	0.000000	0.010777	-0.005461	0.000000	0.012081	-0.335843	0.000000	0.000000	0.000000	0.000000	0.000000	1
63.540026	6.315140	0.000000	0.007715	0.001723	0.000000	0.007905	0.172559	0.000000	0.000000	0.000000	0.000000	0.000000	1
66.649018	6.315140	0.000000	0.000559	0.000164	0.000000	0.000582	-0.341144	0.000000	0.000000	0.000000	0.000000	0.000000	1
69.758010	6.315140	0.000000	0.018428	0.007469	0.000000	0.019884	3.875354	0.000000	0.000000	0.000000	0.000000	0.000000	1
72.867002	6.315140	0.000000	0.038088	0.043757	0.000000	0.058011	4.675395	0.000000	0.000000	0.000000	0.000000	0.000000	1
75.975994	6.315140	0.000000	0.033733	0.032431	0.000000	0.046794	-4.900997	0.000000	0.000000	0.000000	0.000000	0.000000	1
79.084987	6.315140	0.000000	0.005382	-0.004963	0.000000	0.007321	-3.233805	0.000000	0.000000	0.000000	0.000000	0.000000	1
82.193979	6.315140	0.000000	0.008862	0.003830	0.000000	0.009654	11.393285	0.000000	0.000000	0.000000	0.000000	0.000000	1
85.302971	6.315140	0.000000	0.042615	0.048127	0.000000	0.064282	43.113246	0.000000	0.000000	0.000000	0.000000	0.000000	1
88.411963	6.315140	0.000000	0.112632	0.180890	0.000000	0.213089	98.083631	0.000000	0.000000	0.000000	0.000000	0.000000	2
91.520955	6.315140	0.000000	0.482974	0.589142	0.000000	0.761809	71.621361	0.000000	0.000000	0.000000	0.000000	0.000000	1
94.629947	6.315140	0.000000	0.507842	0.510763	0.000000	0.720266	-4.120851	0.000000	0.000000	0.000000	0.000000	0.000000	1
97.738939	6.315140	0.000000	0.628606	0.442540	0.000000	0.768757	-35.427306	0.000000	0.000000	0.000000	0.000000	0.000000	1
100.847931	6.315140	0.000000	0.834489	0.413480	0.000000	0.931310	-67.051462	0.000000	0.000000	0.000000	0.000000	0.000000	1
103.956923	6.315140	0.000000	0.539399	0.380991	0.000000	0.660383	-119.520610	0.000000	0.000000	0.000000	0.000000	0.000000	2
107.065915	6.315140	0.000000	0.051499	0.007940	0.000000	0.052108	-83.890722	0.000000	0.000000	0.000000	0.000000	0.000000	2
110.174908	6.315140	0.000000	-0.000418	-0.001121	0.000000	0.001196	-8.360267	0.000000	0.000000	0.000000	0.000000	0.000000	1
113.283900	6.315140	0.000000	0.000013	-0.003704	0.000000	0.003705	-1.129852	0.000000	0.000000	0.000000	0.000000	0.000000	1
116.392892	6.315140	0.000000	-0.000147	-0.003194	0.000000	0.003198	-0.582237	0.000000	0.000000	0.000000	0.000000	0.000000	1
119.501884	6.315140	0.000000	-0.006376	-0.004775	0.000000	0.007966	-0.184338	0.000000	0.000000	0.000000	0.000000	0.000000	1
122.610876	6.315140	0.000000	-0.006605	-0.003978	0.000000	0.007711	1.523484	0.000000	0.000000	0.000000	0.000000	0.000000	1
125.719868	6.315140	0.000000	-0.005007	0.002684	0.000000	0.005681	1.726099	0.000000	0.000000	0.000000	0.000000	0.000000	1
128.828860	6.315140	0.000000	-0.003236	0.003627	0.000000	0.004861	0.938787	0.000000	0.000000	0.000000	0.000000	0.000000	1
131.937852	6.315140	0.000000	-0.004295	0.004582	0.000000	0.006280	1.416082	0.000000	0.000000	0.000000	0.000000	0.000000	1
135.046844	6.315140	0.000000	-0.002267	0.004463	0.000000	0.005005	1.951009	0.000000	0.000000	0.000000	0.000000	0.000000	1
138.155836	6.315140	0.000000	-0.004466	0.004217	0.000000	0.006142	2.417058	0.000000	0.000000	0.000000	0.000000	0.000000	1
141.264829	6.315140	0.000000	-0.003967	0.006581	0.000000	0.007685	2.157803	0.000000	0.000000	0.000000	0.000000	0.000000	1
144.373821	6.315140	0.000000	-0.003709	0.007461	0.000000	0.008332	1.231485	0.000000	0.000000	0.000000	0.000000	0.000000	1
147.482813	6.315140	0.000000	-0.008272	0.009742	0.000000	0.012780	0.879592	0.000000	0.000000	0.000000	0.000000	0.000000	1
150.591805	6.315140	0.000000	-0.009928	0.012666	0.000000	0.016093	0.329722	0.000000	0.000000	0.000000	0.000000	0.000000	1
153.700797	6.315140	0.000000	-0.005856	0.010707	0.000000	0.012203	0.074932	0.000000	0.000000	0.000000	0.000000	0.000000	1
156.809789	6.315140	0.000000	-0.006540	0.007636	0.000000	0.010054	0.053553	0.000000	0.000000	0.000000	0.000000	0.000000	1
159.918781	6.315140	0.000000	-0.006125	0.003688	0.000000	0.007150	-0.244110	0.000000	0.000000	0.000000	0.000000	0.000000	1
4.469176	9.424132	0.000000	0.003003	0.004346	0.000000	0.005283	1.209954	0.000000	0.000000	0.000000	0.000000	0.000000	1
7.578168	9.424132	0.000000	0.002214	0.007801	0.000000	0.008109	0.702342	0.000000	0.000000	0.000000	0.000000	0.000000	1
10.687160	9.424132	0.000000	0.009037	0.011578	0.000000	0.014688	-0.976318	0.000000	0.000000	0.000000	0.000000	0.000000	1
13.796152	9.424132	0.000000	0.006737	0.008292	0.000000	0.010684	-2.132232	0.000000	0.000000	0.000000	0.000000	0.000000	1
16.905145	9.424132	0.000000	0.002220	0.004933	0.000000	0.005409	-0.906692	0.000000	0.000000	0.000000	0.000000	0.000000	1
20.014137	9.424132	0.000000	0.007640	0.009403	0.000000	0.012116	0.312872	0.000000	0.000000	0.000000	0.000000	0.000000	1
23.123129	9.424132	0.000000	0.013582	0.014222	0.000000	0.019666	0.466592	0.000000	0.000000	0.000000	0.000000	0.000000	1
26.232121	9.424132	0.000000	0.002664	0.011971	0.000000	0.012264	0.215519	0.000000	0.000000	0.000000	0.000000	0.000000	1
29.341113	9.424132	0.000000	0.003652	0.012087	0.000000	0.012627	0.181680	0.000000	0.000000	0.000000	0.000000	0.000000	1
32.450105	9.424132	0.000000	0.008673	0.015590	0.000000	0.017840	-0.142675	0.000000	0.000000	0.000000	0.000000	0.000000	1
35.559097	9.424132	0.000000	0.011795	0.016385	0.000000	0.020189	-1.118659	0.000000	0.000000	0.000000	0.000000	0.000000	1
38.668089	9.424132	0.000000	0.008233	0.008727	0.000000	0.011998	-0.279284	0.000000	0.000000	0.000000	0.000000	0.000000	1
41.777081	9.424132	0.000000	0.009184	0.008845	0.000000	0.012750	0.406256	0.000000	0.000000	0.000000	0.000000	0.000000	1
44.886073	9.424132	0.000000	0.007049	0.006172	0.000000	0.009369	-0.075581	0.000000	0.000000	0.000000	0.000000	0.000000	1
47.995066	9.424132	0.000000	0.008816	0.008767	0.000000	0.012433	5.297755	0.000000	0.000000	0.000000	0.000000	0.000000	1
51.104058	9.424132	0.000000	-0.033276	0.039141	0.000000	0.051375	7.613416	0.000000	0.000000	0.000000	0.000000	0.000000	1
54.213050	9.424132	0.000000	-0.042776	0.037843	0.000000	0.057113	-1.176597	0.000000	0.000000	0.000000	0.000000	0.000000	1
57.322042	9.424132	0.000000	-0.010423	0.002970	0.000000	0.010838	-3.205437	0.000000	0.000000	0.000000	0.000000	0.000000	1
60.431034	9.424132	0.000000	0.011851	0.001089	0.000000	0.011901	3.962084	0.000000	0.000000	0.000000	0.000000	0.000000	1
63.540026	9.424132	0.000000	0.012065	0.008755	0.000000	0.014907	5.791527	0.000000	0.000000	0.000000	0.000000	0.000000	1
66.649018	9.424132	0.000000	-0.001447	0.026352	0.000000	0.026391	0.487820	0.000000	0.000000	0.000000	0.000000	0.000000	1
69.758010	9.424132	0.000000	0.014588	0.014042	0.000000	0.020248	1.277042	0.000000	0.000000	0.000000	0.000000	0.000000	1
72.867002	9.424132	0.000000	0.023729	0.013135	0.000000	0.027122	5.992371	0.000000	0.000000	0.000000	0.000000	0.000000	1
75.975994	9.424132	0.000000	0.016740	0.026250	0.000000	0.031134	0.018034	0.000000	0.000000	0.000000	0.000000	0.000000	1
79.084987	9.424132	0.000000	0.005184	-0.003971	0.000000	0.006531	-3.736030	0.000000	0.000000	0.000000	0.000000	0.000000	1
82.193979	9.424132	0.000000	0.011087	-0.008783	0.000000	0.014144	6.047502	0.000000	0.000000	0.000000	0.000000	0.000000	1
85.302971	9.424132	0.000000	0.032340	0.029360	0.000000	0.043680	26.991404	0.000000	0.000000	0.000000	0.000000	0.000000	1
88.411963	9.424132	0.000000	0.071090	0.140805	0.000000	0.157733	67.883410	0.000000	0.000000	0.000000	0.000000	0.000000	2
91.520955	9.424132	0.000000	0.303354	0.326678	0.000000	0.445805	75.692109	0.000000	0.000000	0.000000	0.000000	0.000000	1
94.629947	9.424132	0.000000	0.471109	0.554513	0.000000	0.727618	42.245780	0.000000	0.000000	0.000000	0.000000	0.000000	1
97.738939	9.424132	0.000000	0.658801	0.565812	0.000000	0.868425	11.474761	0.000000	0.000000	0.000000	0.000000	0.000000	1
100.847931	9.424132	0.000000	0.839125	0.475155	0.000000	0.964315	-3.764284	0.000000	0.000000	0.000000	0.000000	0.000000	1
103.956923	9.424132	0.000000	0.754866	0.403354	0.000000	0.855872	-74.375469	0.000000	0.000000	0.000000	0.000000	0.000000	1
107.065915	9.424132	0.000000	0.108653	0.012067	0.000000	0.109321	-93.518124	0.000000	0.000000	0.000000	0.000000	0.000000	2
110.174908	9.424132	0.000000	0.027770	-0.016621	0.000000	0.032365	-19.740068	0.000000	0.000000	0.000000	0.000000	0.000000	1
113.283900	9.424132	0.000000	0.007919	-0.002089	0.000000	0.008190	0.378951	0.000000	0.000000	0.000000	0.000000	0.000000	1
116.392892	9.424132	0.000000	0.006632	0.002058	0.000000	0.006944	-1.228021	0.000000	0.000000	0.000000	0.000000	0.000000	1
119.501884	9.424132	0.000000	-0.000250	-0.000949	0.000000	0.000982	-1.681967	0.000000	0.000000	0.000000	0.000000	0.000000	1
122.610876	9.424132	0.000000	-0.008821	-0.004325	0.000000	0.009824	1.022651	0.000000	0.000000	0.000000	0.000000	0.000000	1
125.719868	9.424132	0.000000	-0.004209	0.003312	0.000000	0.005356	1.748761	0.000000	0.000000	0.000000	0.000000	0.000000	1
128.828860	9.424132	0.000000	-0.002783	0.004059	0.000000	0.004922	0.187323	0.000000	0.000000	0.000000	0.000000	0.000000	1
131.937852	9.424132	0.000000	-0.006634	0.004630	0.000000	0.008090	0.536652	0.000000	0.000000	0.000000	0.000000	0.000000	1
135.046844	9.424132	0.000000	-0.014099	0.005807	0.000000	0.015248	0.876537	0.000000	0.000000	0.000000	0.000000	0.000000	1
138.155836	9.424132	0.000000	-0.016398	0.006511	0.000000	0.017643	1.105917	0.000000	0.000000	0.000000	0.000000	0.000000	1
141.264829	9.424132	0.000000	-0.007998	0.015510	0.000000	0.017451	0.844183	0.000000	0.000000	0.000000	0.000000	0.000000	1
144.373821	9.424132	0.000000	-0.008757	0.017644	0.000000	0.019697	-0.589969	0.000000	0.000000	0.000000	0.000000	0.000000	1
147.482813	9.424132	0.000000	-0.009349	0.009643	0.000000	0.013431	-1.000178	0.000000	0.000000	0.000000	0.000000	0.000000	1
150.591805	9.424132	0.000000	-0.007657	0.010465	0.000000	0.012967	-0.473145	0.000000	0.000000	0.000000	0.000000	0.000000	1
153.700797	9.424132	0.000000	-0.008149	0.012346	0.000000	0.014793	-0.731601	0.000000	0.000000	0.000000	0.000000	0.000000	1
156.809789	9.424132	0.000000	-0.007555	0.009396	0.000000	0.012057	-0.891211	0.000000	0.000000	0.000000	0.000000	0.000000	1
159.918781	9.424132	0.000000	-0.007005	0.006644	0.000000	0.009654	-0.750106	0.000000	0.000000	0.000000	0.000000	0.000000	1
4.469176	12.533124	0.000000	0.005485	0.006183	0.000000	0.008265	1.171950	0.000000	0.000000	0.000000	0.000000	0.000000	1
7.578168	12.533124	0.000000	0.000995	0.009889	0.000000	0.009939	1.250609	0.000000	0.000000	0.000000	0.000000	0.000000	1
10.687160	12.533124	0.000000	0.008713	0.011507	0.000000	0.014433	0.846843	0.000000	0.000000	0.000000	0.000000	0.000000	1
13.796152	12.533124	0.000000	0.006881	0.008239	0.000000	0.010734	0.260039	0.000000	0.000000	0.000000	0.000000	0.000000	1
16.905145	12.533124	0.000000	0.002777	0.005401	0.000000	0.006073	0.896477	0.000000	0.000000	0.000000	0.000000	0.000000	1
20.014137	12.533124	0.000000	0.010123	0.009927	0.000000	0.014178	1.361234	0.000000	0.000000	0.000000	0.000000	0.000000	1
23.123129	12.533124	0.000000	0.009980	0.011031	0.000000	0.014876	-0.700231	0.000000	0.000000	0.000000	0.000000	0.000000	1
26.232121	12.533124	0.000000	0.004419	0.005519	0.000000	0.007070	-2.508908	0.000000	0.000000	0.000000	0.000000	0.000000	1
29.341113	12.533124	0.000000	0.008951	0.008897	0.000000	0.012620	-0.392964	0.000000	0.000000	0.000000	0.000000	0.000000	1
32.450105	12.533124	0.000000	0.011088	0.021741	0.000000	0.024405	0.236054	0.000000	0.000000	0.000000	0.000000	0.000000	1
35.559097	12.533124	0.000000	0.005053	0.014057	0.000000	0.014937	-1.115101	0.000000	0.000000	0.000000	0.000000	0.000000	1
38.668089	12.533124	0.000000	0.002069	0.007454	0.000000	0.007736	0.255742	0.000000	0.000000	0.000000	0.000000	0.000000	1
41.777081	12.533124	0.000000	0.004132	0.006330	0.000000	0.007559	0.160317	0.000000	0.000000	0.000000	0.000000	0.000000	1
44.886073	12.533124	0.000000	0.007885	0.009193	0.000000	0.012111	-1.051939	0.000000	0.000000	0.000000	0.000000	0.000000	1
47.995066	12.533124	0.000000	0.014464	0.016487	0.000000	0.021932	3.423128	0.000000	0.000000	0.000000	0.000000	0.000000	1
51.104058	12.533124	0.000000	-0.042631	0.057028	0.000000	0.071201	3.442595	0.000000	0.000000	0.000000	0.000000	0.000000	1
54.213050	12.533124	0.000000	-0.039034	0.051558	0.000000	0.064668	-5.737785	0.000000	0.000000	0.000000	0.000000	0.000000	1
57.322042	12.533124	0.000000	-0.002308	0.011680	0.000000	0.011906	-3.378776	0.000000	0.000000	0.000000	0.000000	0.000000	1
60.431034	12.533124	0.000000	-0.008718	0.007577	0.000000	0.011550	12.008982	0.000000	0.000000	0.000000	0.000000	0.000000	1
63.540026	12.533124	0.000000	-0.002185	0.048492	0.000000	0.048542	13.393355	0.000000	0.000000	0.000000	0.000000	0.000000	1
66.649018	12.533124	0.000000	-0.008020	0.047600	0.000000	0.048271	-0.636932	0.000000	0.000000	0.000000	0.000000	0.000000	1
69.758010	12.533124	0.000000	0.004124	0.002944	0.000000	0.005067	-0.826953	0.000000	0.000000	0.000000	0.000000	0.000000	1
72.867002	12.533124	0.000000	0.014052	0.000980	0.000000	0.014086	6.717820	0.000000	0.000000	0.000000	0.000000	0.000000	1
75.975994	12.533124	0.000000	0.006918	0.013415	0.000000	0.015094	2.491415	0.000000	0.000000	0.000000	0.000000	0.000000	1
79.084987	12.533124	0.000000	0.000049	0.001359	0.000000	0.001360	-0.954763	0.000000	0.000000	0.000000	0.000000	0.000000	1
82.193979	12.533124	0.000000	0.023878	-0.003307	0.000000	0.024106	7.650709	0.000000	0.000000	0.000000	0.000000	0.000000	1
85.302971	12.533124	0.000000	0.019327	0.033432	0.000000	0.038617	19.091357	0.000000	0.000000	0.000000	0.000000	0.000000	1
88.411963	12.533124	0.000000	0.058024	0.105622	0.000000	0.120510	44.667287	0.000000	0.000000	0.000000	0.000000	0.000000	1
91.520955	12.533124	0.000000	0.351711	0.322413	0.000000	0.477128	54.444363	0.000000	0.000000	0.000000	0.000000	0.000000	1
94.629947	12.533124	0.000000	0.374357	0.380329	0.000000	0.533660	56.929356	0.000000	0.000000	0.000000	0.000000	0.000000	1
97.738939	12.533124	0.000000	0.647889	0.662534	0.000000	0.926667	30.585246	0.000000	0.000000	0.000000	0.000000	0.000000	1
100.847931	12.533124	0.000000	0.624888	0.617207	0.000000	0.878311	-5.772087	0.000000	0.000000	0.000000	0.000000	0.000000	1
103.956923	12.533124	0.000000	0.540449	0.556503	0.000000	0.775745	-58.881853	0.000000	0.000000	0.000000	0.000000	0.000000	1
107.065915	12.533124	0.000000	0.308600	0.148655	0.000000	0.342538	-103.733146	0.000000	0.000000	0.000000	0.000000	0.000000	2
110.174908	12.533124	0.000000	0.019038	-0.012710	0.000000	0.022891	-43.562756	0.000000	0.000000	0.000000	0.000000	0.000000	1
113.283900	12.533124	0.000000	0.007029	0.000665	0.000000	0.007060	2.193759	0.000000	0.000000	0.000000	0.000000	0.000000	1
116.392892	12.533124	0.000000	0.008258	0.003323	0.000000	0.008901	1.103745	0.000000	0.000000	0.000000	0.000000	0.000000	1
119.501884	12.533124	0.000000	0.000244	-0.000640	0.000000	0.000685	0.696239	0.000000	0.000000	0.000000	0.000000	0.000000	1
122.610876	12.533124	0.000000	-0.014138	-0.010849	0.000000	0.017820	0.823503	0.000000	0.000000	0.000000	0.000000	0.000000	1
125.719868	12.533124	0.000000	-0.003323	0.002053	0.000000	0.003906	1.391412	0.000000	0.000000	0.000000	0.000000	0.000000	1
128.828860	12.533124	0.000000	-0.003030	0.004313	0.000000	0.005271	0.212480	0.000000	0.000000	0.000000	0.000000	0.000000	1
131.937852	12.533124	0.000000	-0.005075	0.003492	0.000000	0.006160	-0.051295	0.000000	0.000000	0.000000	0.000000	0.000000	1
135.046844	12.533124	0.000000	-0.007452	0.006789	0.000000	0.010081	-0.800470	0.000000	0.000000	0.000000	0.000000	0.000000	1
138.155836	12.533124	0.000000	-0.007400	0.007809	0.000000	0.010759	-1.553145	0.000000	0.000000	0.000000	0.000000	0.000000	1
141.264829	12.533124	0.000000	-0.002861	0.002822	0.000000	0.004019	-0.981829	0.000000	0.000000	0.000000	0.000000	0.000000	1
144.373821	12.533124	0.000000	-0.002535	0.003747	0.000000	0.004524	-0.779810	0.000000	0.000000	0.000000	0.000000	0.000000	1
147.482813	12.533124	0.000000	-0.002998	0.005447	0.000000	0.006218	-0.947167	0.000000	0.000000	0.000000	0.000000	0.000000	1
150.591805	12.533124	0.000000	-0.003822	0.005848	0.000000	0.006987	-0.655546	0.000000	0.000000	0.000000	0.000000	0.000000	1
153.700797	12.533124	0.000000	-0.004280	0.006368	0.000000	0.007673	-0.633411	0.000000	0.000000	0.000000	0.000000	0.000000	1
156.809789	12.533124	0.000000	-0.004940	0.005677	0.000000	0.007526	-0.377002	0.000000	0.000000	0.000000	0.000000	0.000000	1
159.918781	12.533124	0.000000	-0.006417	0.007110	0.000000	0.009578	-0.047545	0.000000	0.000000	0.000000	0.000000	0.000000	1
4.469176	15.642117	0.000000	0.004940	0.002166	0.000000	0.005394	1.294914	0.000000	0.000000	0.000000	0.000000	0.000000	1
7.578168	15.642117	0.000000	-0.000475	0.005122	0.000000	0.005144	0.904135	0.000000	0.000000	0.000000	0.000000	0.000000	1
10.687160	15.642117	0.000000	0.000271	0.003186	0.000000	0.003198	0.607009	0.000000	0.000000	0.000000	0.000000	0.000000	1
13.796152	15.642117	0.000000	0.000472	0.002509	0.000000	0.002553	0.405871	0.000000	0.000000	0.000000	0.000000	0.000000	1
16.905145	15.642117	0.000000	-0.001623	0.003372	0.000000	0.003743	0.364807	0.000000	0.000000	0.000000	0.000000	0.000000	1
20.014137	15.642117	0.000000	0.005769	0.004496	0.000000	0.007313	0.157301	0.000000	0.000000	0.000000	0.000000	0.000000	1
23.123129	15.642117	0.000000	0.010383	0.005893	0.000000	0.011939	-0.220774	0.000000	0.000000	0.000000	0.000000	0.000000	1
26.232121	15.642117	0.000000	0.023268	0.005662	0.000000	0.023947	0.347918	0.000000	0.000000	0.000000	0.000000	0.000000	1
29.341113	15.642117	0.000000	0.023127	0.007379	0.000000	0.024275	0.938992	0.000000	0.000000	0.000000	0.000000	0.000000	1
32.450105	15.642117	0.000000	0.010771	0.021476	0.000000	0.024026	-0.857351	0.000000	0.000000	0.000000	0.000000	0.000000	1
35.559097	15.642117	0.000000	0.004375	0.014883	0.000000	0.015512	-1.840049	0.000000	0.000000	0.000000	0.000000	0.000000	1
38.668089	15.642117	0.000000	0.004313	0.012516	0.000000	0.013238	0.797052	0.000000	0.000000	0.000000	0.000000	0.000000	1
41.777081	15.642117	0.000000	0.014474	0.034267	0.000000	0.037199	1.228184	0.000000	0.000000	0.000000	0.000000	0.000000	1
44.886073	15.642117	0.000000	0.022934	0.038127	0.000000	0.044493	2.466207	0.000000	0.000000	0.000000	0.000000	0.000000	1
47.995066	15.642117	0.000000	0.021052	0.037165	0.000000	0.042713	5.219917	0.000000	0.000000	0.000000	0.000000	0.000000	1
51.104058	15.642117	0.000000	-0.036257	0.032004	0.000000	0.048361	2.454741	0.000000	0.000000	0.000000	0.000000	0.000000	2
54.213050	15.642117	0.000000	-0.031202	0.041418	0.000000	0.051855	-2.186779	0.000000	0.000000	0.000000	0.000000	0.000000	1
57.322042	15.642117	0.000000	-0.013084	0.033666	0.000000	0.036119	-1.143075	0.000000	0.000000	0.000000	0.000000	0.000000	1
60.431034	15.642117	0.000000	-0.060891	0.015607	0.000000	0.062859	9.873139	0.000000	0.000000	0.000000	0.000000	0.000000	1
63.540026	15.642117	0.000000	-0.047451	0.045282	0.000000	0.065590	12.314354	0.000000	0.000000	0.000000	0.000000	0.000000	1
66.649018	15.642117	0.000000	-0.003823	0.049267	0.000000	0.049415	-2.163947	0.000000	0.000000	0.000000	0.000000	0.000000	1
69.758010	15.642117	0.000000	-0.035653	0.000742	0.000000	0.035661	-3.116802	0.000000	0.000000	0.000000	0.000000	0.000000	1
72.867002	15.642117	0.000000	-0.006890	0.001678	0.000000	0.007092	5.036643	0.000000	0.000000	0.000000	0.000000	0.000000	2
75.975994	15.642117	0.000000	-0.002769	0.003686	0.000000	0.004610	2.094968	0.000000	0.000000	0.000000	0.000000	0.000000	1
79.084987	15.642117	0.000000	0.000166	0.005336	0.000000	0.005339	1.363712	0.000000	0.000000	0.000000	0.000000	0.000000	1
82.193979	15.642117	0.000000	0.015956	0.023740	0.000000	0.028604	6.377167	0.000000	0.000000	0.000000	0.000000	0.000000	1
85.302971	15.642117	0.000000	0.011442	0.081969	0.000000	0.082764	4.545819	0.000000	0.000000	0.000000	0.000000	0.000000	1
88.411963	15.642117	0.000000	0.055391	0.078509	0.000000	0.096082	29.314527	0.000000	0.000000	0.000000	0.000000	0.000000	2
91.520955	15.642117	0.000000	0.320550	0.282554	0.000000	0.427304	53.682013	0.000000	0.000000	0.000000	0.000000	0.000000	1
94.629947	15.642117	0.000000	0.361208	0.378318	0.000000	0.523064	72.363773	0.000000	0.000000	0.000000	0.000000	0.000000	1
97.738939	15.642117	0.000000	0.669000	0.586717	0.000000	0.889830	56.434337	0.000000	0.000000	0.000000	0.000000	0.000000	2
100.847931	15.642117	0.000000	0.781578	0.597586	0.000000	0.983857	15.015911	0.000000	0.000000	0.000000	0.000000	0.000000	2
103.956923	15.642117	0.000000	0.630922	0.588835	0.000000	0.863011	-15.241077	0.000000	0.000000	0.000000	0.000000	0.000000	1
107.065915	15.642117	0.000000	0.401221	0.520402	0.000000	0.657113	-98.086559	0.000000	0.000000	0.000000	0.000000	0.000000	2
110.174908	15.642117	0.000000	0.012620	0.013228	0.000000	0.018282	-79.680255	0.000000	0.000000	0.000000	0.000000	0.000000	1
113.283900	15.642117	0.000000	0.010529	0.011923	0.000000	0.015907	-6.220351	0.000000	0.000000	0.000000	0.000000	0.000000	1
116.392892	15.642117	0.000000	0.001218	0.001702	0.000000	0.002093	-1.642554	0.000000	0.000000	0.000000	0.000000	0.000000	1
119.501884	15.642117	0.000000	-0.020943	0.011937	0.000000	0.024105	-0.167197	0.000000	0.000000	0.000000	0.000000	0.000000	1
122.610876	15.642117	0.000000	-0.012184	0.003582	0.000000	0.012699	-3.345549	0.000000	0.000000	0.000000	0.000000	0.000000	1