TITLE = "PIV Result  1407 "
VARIABLES = "X (mm)""Y (mm)""Z (mm)""U (m/s)""V (m/s)""W (m/s)""Speed (m/s)""Vorticity""U-std""V-std""W-std""Speed-std""Vorticity-std""Flag"
ZONE T="ZONE 1407 "
I= 51 , J= 16 , K= 1 , F=POINT
DT=(DOUBLE DOUBLE DOUBLE DOUBLE DOUBLE DOUBLE DOUBLE DOUBLE DOUBLE DOUBLE DOUBLE DOUBLE DOUBLE DOUBLE)
4.469176	3.206148	0.000000	0.003377	0.011468	0.000000	0.011955	1.670373	0.000000	0.000000	0.000000	0.000000	0.000000	2
7.578168	3.206148	0.000000	0.001180	0.016650	0.000000	0.016692	0.529052	0.000000	0.000000	0.000000	0.000000	0.000000	1
10.687160	3.206148	0.000000	0.002013	0.011710	0.000000	0.011882	-0.643519	0.000000	0.000000	0.000000	0.000000	0.000000	1
13.796152	3.206148	0.000000	0.002566	0.003076	0.000000	0.004006	0.104326	0.000000	0.000000	0.000000	0.000000	0.000000	1
16.905145	3.206148	0.000000	0.004278	0.007845	0.000000	0.008935	1.348557	0.000000	0.000000	0.000000	0.000000	0.000000	1
20.014137	3.206148	0.000000	0.006936	0.008868	0.000000	0.011259	0.407694	0.000000	0.000000	0.000000	0.000000	0.000000	1
23.123129	3.206148	0.000000	-0.001881	0.007928	0.000000	0.008148	-0.742188	0.000000	0.000000	0.000000	0.000000	0.000000	1
26.232121	3.206148	0.000000	0.000588	0.012158	0.000000	0.012172	-0.030530	0.000000	0.000000	0.000000	0.000000	0.000000	1
29.341113	3.206148	0.000000	0.005725	0.015526	0.000000	0.016547	-0.038410	0.000000	0.000000	0.000000	0.000000	0.000000	1
32.450105	3.206148	0.000000	0.005184	0.005768	0.000000	0.007755	0.057930	0.000000	0.000000	0.000000	0.000000	0.000000	1
35.559097	3.206148	0.000000	0.003794	0.001193	0.000000	0.003977	-0.665346	0.000000	0.000000	0.000000	0.000000	0.000000	1
38.668089	3.206148	0.000000	0.000431	0.000779	0.000000	0.000890	-2.101557	0.000000	0.000000	0.000000	0.000000	0.000000	1
41.777081	3.206148	0.000000	-0.000187	0.000228	0.000000	0.000295	-1.829352	0.000000	0.000000	0.000000	0.000000	0.000000	1
44.886073	3.206148	0.000000	0.001848	-0.000627	0.000000	0.001951	-1.326237	0.000000	0.000000	0.000000	0.000000	0.000000	1
47.995066	3.206148	0.000000	0.000233	-0.001131	0.000000	0.001154	-0.876401	0.000000	0.000000	0.000000	0.000000	0.000000	1
51.104058	3.206148	0.000000	-0.000039	-0.001389	0.000000	0.001390	1.022604	0.000000	0.000000	0.000000	0.000000	0.000000	1
54.213050	3.206148	0.000000	0.004872	0.000314	0.000000	0.004882	3.613169	0.000000	0.000000	0.000000	0.000000	0.000000	1
57.322042	3.206148	0.000000	0.003745	-0.001355	0.000000	0.003983	2.471197	0.000000	0.000000	0.000000	0.000000	0.000000	1
60.431034	3.206148	0.000000	0.000931	-0.004465	0.000000	0.004561	4.641966	0.000000	0.000000	0.000000	0.000000	0.000000	1
63.540026	3.206148	0.000000	-0.000251	0.000123	0.000000	0.000279	6.665372	0.000000	0.000000	0.000000	0.000000	0.000000	1
66.649018	3.206148	0.000000	0.001203	0.001245	0.000000	0.001731	6.029528	0.000000	0.000000	0.000000	0.000000	0.000000	1
69.758010	3.206148	0.000000	0.006434	0.002715	0.000000	0.006984	58.239221	0.000000	0.000000	0.000000	0.000000	0.000000	1
72.867002	3.206148	0.000000	-0.156130	0.297921	0.000000	0.336353	128.058029	0.000000	0.000000	0.000000	0.000000	0.000000	1
75.975994	3.206148	0.000000	-0.214869	0.739130	0.000000	0.769729	108.246919	0.000000	0.000000	0.000000	0.000000	0.000000	1
79.084987	3.206148	0.000000	-0.242207	0.878264	0.000000	0.911050	-63.820855	0.000000	0.000000	0.000000	0.000000	0.000000	1
82.193979	3.206148	0.000000	0.065201	0.348867	0.000000	0.354908	-118.394097	0.000000	0.000000	0.000000	0.000000	0.000000	1
85.302971	3.206148	0.000000	0.052531	0.197450	0.000000	0.204318	-45.151417	0.000000	0.000000	0.000000	0.000000	0.000000	2
88.411963	3.206148	0.000000	0.017613	-0.015470	0.000000	0.023443	-29.732772	0.000000	0.000000	0.000000	0.000000	0.000000	1
91.520955	3.206148	0.000000	0.013131	-0.004501	0.000000	0.013881	-5.558186	0.000000	0.000000	0.000000	0.000000	0.000000	2
94.629947	3.206148	0.000000	-0.019038	0.002772	0.000000	0.019238	-2.051388	0.000000	0.000000	0.000000	0.000000	0.000000	1
97.738939	3.206148	0.000000	-0.011602	0.000567	0.000000	0.011616	1.527378	0.000000	0.000000	0.000000	0.000000	0.000000	1
100.847931	3.206148	0.000000	-0.004382	0.000024	0.000000	0.004382	8.687305	0.000000	0.000000	0.000000	0.000000	0.000000	1
103.956923	3.206148	0.000000	0.001205	0.001771	0.000000	0.002142	9.854478	0.000000	0.000000	0.000000	0.000000	0.000000	1
107.065915	3.206148	0.000000	-0.001229	-0.001068	0.000000	0.001628	5.634027	0.000000	0.000000	0.000000	0.000000	0.000000	1
110.174908	3.206148	0.000000	-0.003143	-0.002067	0.000000	0.003761	4.172220	0.000000	0.000000	0.000000	0.000000	0.000000	1
113.283900	3.206148	0.000000	-0.004298	-0.000249	0.000000	0.004305	3.940215	0.000000	0.000000	0.000000	0.000000	0.000000	1
116.392892	3.206148	0.000000	-0.003126	-0.000389	0.000000	0.003151	2.661887	0.000000	0.000000	0.000000	0.000000	0.000000	1
119.501884	3.206148	0.000000	-0.002850	-0.000525	0.000000	0.002898	1.864783	0.000000	0.000000	0.000000	0.000000	0.000000	1
122.610876	3.206148	0.000000	-0.003903	0.000700	0.000000	0.003965	0.704327	0.000000	0.000000	0.000000	0.000000	0.000000	1
125.719868	3.206148	0.000000	-0.002102	0.000776	0.000000	0.002241	0.483487	0.000000	0.000000	0.000000	0.000000	0.000000	1
128.828860	3.206148	0.000000	-0.000392	0.000122	0.000000	0.000410	1.764459	0.000000	0.000000	0.000000	0.000000	0.000000	1
131.937852	3.206148	0.000000	-0.000442	0.000323	0.000000	0.000548	2.887225	0.000000	0.000000	0.000000	0.000000	0.000000	1
135.046844	3.206148	0.000000	-0.001886	0.002096	0.000000	0.002819	2.621232	0.000000	0.000000	0.000000	0.000000	0.000000	1
138.155836	3.206148	0.000000	-0.002634	0.005002	0.000000	0.005653	0.525492	0.000000	0.000000	0.000000	0.000000	0.000000	1
141.264829	3.206148	0.000000	-0.002930	0.006948	0.000000	0.007540	-0.472812	0.000000	0.000000	0.000000	0.000000	0.000000	1
144.373821	3.206148	0.000000	-0.002580	0.006753	0.000000	0.007229	-0.201114	0.000000	0.000000	0.000000	0.000000	0.000000	1
147.482813	3.206148	0.000000	-0.007003	0.008899	0.000000	0.011325	-0.262155	0.000000	0.000000	0.000000	0.000000	0.000000	1
150.591805	3.206148	0.000000	-0.007193	0.008949	0.000000	0.011482	-0.154419	0.000000	0.000000	0.000000	0.000000	0.000000	1
153.700797	3.206148	0.000000	-0.007838	0.007808	0.000000	0.011064	0.046983	0.000000	0.000000	0.000000	0.000000	0.000000	1
156.809789	3.206148	0.000000	-0.004416	0.006844	0.000000	0.008145	-0.348750	0.000000	0.000000	0.000000	0.000000	0.000000	1
159.918781	3.206148	0.000000	-0.003814	0.003228	0.000000	0.004997	-0.785544	0.000000	0.000000	0.000000	0.000000	0.000000	1
4.469176	6.315140	0.000000	0.001010	0.009166	0.000000	0.009222	1.237402	0.000000	0.000000	0.000000	0.000000	0.000000	1
7.578168	6.315140	0.000000	0.001647	0.012471	0.000000	0.012579	0.352222	0.000000	0.000000	0.000000	0.000000	0.000000	1
10.687160	6.315140	0.000000	-0.001590	0.010468	0.000000	0.010588	-0.477330	0.000000	0.000000	0.000000	0.000000	0.000000	1
13.796152	6.315140	0.000000	0.001027	0.009764	0.000000	0.009818	-0.090273	0.000000	0.000000	0.000000	0.000000	0.000000	1
16.905145	6.315140	0.000000	-0.000854	0.003818	0.000000	0.003913	1.047628	0.000000	0.000000	0.000000	0.000000	0.000000	1
20.014137	6.315140	0.000000	0.006121	0.008126	0.000000	0.010173	0.888207	0.000000	0.000000	0.000000	0.000000	0.000000	1
23.123129	6.315140	0.000000	0.005132	0.009056	0.000000	0.010409	0.157444	0.000000	0.000000	0.000000	0.000000	0.000000	1
26.232121	6.315140	0.000000	0.002424	0.010653	0.000000	0.010925	0.653005	0.000000	0.000000	0.000000	0.000000	0.000000	1
29.341113	6.315140	0.000000	0.006720	0.012759	0.000000	0.014420	0.691243	0.000000	0.000000	0.000000	0.000000	0.000000	1
32.450105	6.315140	0.000000	-0.000392	0.014815	0.000000	0.014820	0.304799	0.000000	0.000000	0.000000	0.000000	0.000000	1
35.559097	6.315140	0.000000	0.000997	0.014858	0.000000	0.014892	-1.299902	0.000000	0.000000	0.000000	0.000000	0.000000	1
38.668089	6.315140	0.000000	0.005454	0.005383	0.000000	0.007663	-2.257256	0.000000	0.000000	0.000000	0.000000	0.000000	1
41.777081	6.315140	0.000000	0.004477	0.001601	0.000000	0.004754	-1.109374	0.000000	0.000000	0.000000	0.000000	0.000000	1
44.886073	6.315140	0.000000	0.004548	0.001089	0.000000	0.004677	-0.364307	0.000000	0.000000	0.000000	0.000000	0.000000	1
47.995066	6.315140	0.000000	0.002705	-0.000997	0.000000	0.002884	-0.728871	0.000000	0.000000	0.000000	0.000000	0.000000	1
51.104058	6.315140	0.000000	0.000705	-0.000658	0.000000	0.000964	-1.248436	0.000000	0.000000	0.000000	0.000000	0.000000	1
54.213050	6.315140	0.000000	-0.011457	-0.002093	0.000000	0.011647	-1.284803	0.000000	0.000000	0.000000	0.000000	0.000000	1
57.322042	6.315140	0.000000	-0.016124	-0.007543	0.000000	0.017802	-1.397571	0.000000	0.000000	0.000000	0.000000	0.000000	2
60.431034	6.315140	0.000000	-0.013591	-0.037172	0.000000	0.039579	2.484767	0.000000	0.000000	0.000000	0.000000	0.000000	1
63.540026	6.315140	0.000000	-0.016345	-0.016300	0.000000	0.023084	4.272706	0.000000	0.000000	0.000000	0.000000	0.000000	1
66.649018	6.315140	0.000000	-0.013823	-0.021728	0.000000	0.025753	3.907393	0.000000	0.000000	0.000000	0.000000	0.000000	1
69.758010	6.315140	0.000000	-0.016487	-0.012978	0.000000	0.020982	82.299132	0.000000	0.000000	0.000000	0.000000	0.000000	2
72.867002	6.315140	0.000000	-0.135730	0.365387	0.000000	0.389783	157.425172	0.000000	0.000000	0.000000	0.000000	0.000000	1
75.975994	6.315140	0.000000	-0.202649	0.873233	0.000000	0.896439	93.366552	0.000000	0.000000	0.000000	0.000000	0.000000	1
79.084987	6.315140	0.000000	-0.266057	1.152192	0.000000	1.182511	-74.477826	0.000000	0.000000	0.000000	0.000000	0.000000	1
82.193979	6.315140	0.000000	-0.023431	0.345707	0.000000	0.346500	-118.755309	0.000000	0.000000	0.000000	0.000000	0.000000	2
85.302971	6.315140	0.000000	0.021721	0.128733	0.000000	0.130553	-51.183628	0.000000	0.000000	0.000000	0.000000	0.000000	1
88.411963	6.315140	0.000000	0.042806	0.023483	0.000000	0.048824	-28.782524	0.000000	0.000000	0.000000	0.000000	0.000000	1
91.520955	6.315140	0.000000	0.025517	-0.007112	0.000000	0.026489	-6.445941	0.000000	0.000000	0.000000	0.000000	0.000000	1
94.629947	6.315140	0.000000	-0.007011	-0.001890	0.000000	0.007261	-2.489550	0.000000	0.000000	0.000000	0.000000	0.000000	1
97.738939	6.315140	0.000000	-0.014863	-0.004512	0.000000	0.015533	-2.862321	0.000000	0.000000	0.000000	0.000000	0.000000	1
100.847931	6.315140	0.000000	-0.034419	-0.004680	0.000000	0.034736	0.384482	0.000000	0.000000	0.000000	0.000000	0.000000	1
103.956923	6.315140	0.000000	-0.033158	0.004621	0.000000	0.033479	0.574632	0.000000	0.000000	0.000000	0.000000	0.000000	1
107.065915	6.315140	0.000000	-0.013691	0.007736	0.000000	0.015726	-0.528379	0.000000	0.000000	0.000000	0.000000	0.000000	1
110.174908	6.315140	0.000000	-0.017676	0.004702	0.000000	0.018291	0.346192	0.000000	0.000000	0.000000	0.000000	0.000000	1
113.283900	6.315140	0.000000	-0.017186	0.004387	0.000000	0.017737	1.173746	0.000000	0.000000	0.000000	0.000000	0.000000	1
116.392892	6.315140	0.000000	-0.013664	0.001180	0.000000	0.013715	0.435941	0.000000	0.000000	0.000000	0.000000	0.000000	1
119.501884	6.315140	0.000000	-0.008075	-0.001421	0.000000	0.008199	0.955153	0.000000	0.000000	0.000000	0.000000	0.000000	1
122.610876	6.315140	0.000000	-0.004356	0.001840	0.000000	0.004729	1.191342	0.000000	0.000000	0.000000	0.000000	0.000000	1
125.719868	6.315140	0.000000	-0.001302	0.000704	0.000000	0.001480	0.843673	0.000000	0.000000	0.000000	0.000000	0.000000	1
128.828860	6.315140	0.000000	-0.006689	0.003279	0.000000	0.007450	1.227799	0.000000	0.000000	0.000000	0.000000	0.000000	1
131.937852	6.315140	0.000000	-0.008203	0.003544	0.000000	0.008936	1.925965	0.000000	0.000000	0.000000	0.000000	0.000000	1
135.046844	6.315140	0.000000	-0.006066	0.011211	0.000000	0.012747	1.764966	0.000000	0.000000	0.000000	0.000000	0.000000	1
138.155836	6.315140	0.000000	-0.005445	0.012531	0.000000	0.013662	1.378381	0.000000	0.000000	0.000000	0.000000	0.000000	1
141.264829	6.315140	0.000000	0.000709	0.006731	0.000000	0.006769	2.220053	0.000000	0.000000	0.000000	0.000000	0.000000	1
144.373821	6.315140	0.000000	-0.003396	0.008552	0.000000	0.009201	0.892521	0.000000	0.000000	0.000000	0.000000	0.000000	1
147.482813	6.315140	0.000000	-0.005935	0.005355	0.000000	0.007993	-0.507740	0.000000	0.000000	0.000000	0.000000	0.000000	1
150.591805	6.315140	0.000000	-0.005807	0.005802	0.000000	0.008209	0.082801	0.000000	0.000000	0.000000	0.000000	0.000000	1
153.700797	6.315140	0.000000	-0.008824	0.007381	0.000000	0.011504	-0.212926	0.000000	0.000000	0.000000	0.000000	0.000000	1
156.809789	6.315140	0.000000	-0.005844	0.006479	0.000000	0.008725	-0.763158	0.000000	0.000000	0.000000	0.000000	0.000000	1
159.918781	6.315140	0.000000	-0.004312	0.003284	0.000000	0.005420	-0.812059	0.000000	0.000000	0.000000	0.000000	0.000000	1
4.469176	9.424132	0.000000	0.000948	0.008496	0.000000	0.008549	0.559776	0.000000	0.000000	0.000000	0.000000	0.000000	1
7.578168	9.424132	0.000000	0.002103	0.010587	0.000000	0.010794	-0.014341	0.000000	0.000000	0.000000	0.000000	0.000000	1
10.687160	9.424132	0.000000	-0.001953	0.009861	0.000000	0.010053	-0.472443	0.000000	0.000000	0.000000	0.000000	0.000000	1
13.796152	9.424132	0.000000	0.000940	0.009067	0.000000	0.009115	0.132462	0.000000	0.000000	0.000000	0.000000	0.000000	1
16.905145	9.424132	0.000000	-0.002970	0.010315	0.000000	0.010734	1.770940	0.000000	0.000000	0.000000	0.000000	0.000000	1
20.014137	9.424132	0.000000	0.001106	0.010657	0.000000	0.010714	0.900539	0.000000	0.000000	0.000000	0.000000	0.000000	1
23.123129	9.424132	0.000000	0.002267	0.007088	0.000000	0.007442	-1.568238	0.000000	0.000000	0.000000	0.000000	0.000000	1
26.232121	9.424132	0.000000	0.001817	0.009924	0.000000	0.010089	-0.773040	0.000000	0.000000	0.000000	0.000000	0.000000	1
29.341113	9.424132	0.000000	0.002153	0.011362	0.000000	0.011564	0.432350	0.000000	0.000000	0.000000	0.000000	0.000000	1
32.450105	9.424132	0.000000	0.001288	0.015373	0.000000	0.015427	-0.837616	0.000000	0.000000	0.000000	0.000000	0.000000	1
35.559097	9.424132	0.000000	0.002658	0.016577	0.000000	0.016789	-3.069570	0.000000	0.000000	0.000000	0.000000	0.000000	1
38.668089	9.424132	0.000000	0.006009	0.006304	0.000000	0.008709	-2.060568	0.000000	0.000000	0.000000	0.000000	0.000000	1
41.777081	9.424132	0.000000	0.003500	0.001622	0.000000	0.003857	1.569260	0.000000	0.000000	0.000000	0.000000	0.000000	1
44.886073	9.424132	0.000000	0.000408	0.000218	0.000000	0.000463	1.906441	0.000000	0.000000	0.000000	0.000000	0.000000	1
47.995066	9.424132	0.000000	0.007744	0.007435	0.000000	0.010735	-0.593049	0.000000	0.000000	0.000000	0.000000	0.000000	1
51.104058	9.424132	0.000000	0.010179	0.010146	0.000000	0.014372	-1.691676	0.000000	0.000000	0.000000	0.000000	0.000000	1
54.213050	9.424132	0.000000	0.005726	0.005931	0.000000	0.008244	-3.977265	0.000000	0.000000	0.000000	0.000000	0.000000	1
57.322042	9.424132	0.000000	-0.018705	-0.018598	0.000000	0.026377	-4.897668	0.000000	0.000000	0.000000	0.000000	0.000000	1
60.431034	9.424132	0.000000	-0.017202	-0.016071	0.000000	0.023541	-1.929592	0.000000	0.000000	0.000000	0.000000	0.000000	1
63.540026	9.424132	0.000000	-0.022011	-0.021236	0.000000	0.030585	0.230655	0.000000	0.000000	0.000000	0.000000	0.000000	1
66.649018	9.424132	0.000000	-0.022690	-0.031945	0.000000	0.039183	13.120895	0.000000	0.000000	0.000000	0.000000	0.000000	2
69.758010	9.424132	0.000000	-0.012948	-0.022217	0.000000	0.025715	137.556367	0.000000	0.000000	0.000000	0.000000	0.000000	2
72.867002	9.424132	0.000000	-0.122682	0.914881	0.000000	0.923070	206.411137	0.000000	0.000000	0.000000	0.000000	0.000000	1
75.975994	9.424132	0.000000	-0.285731	1.361076	0.000000	1.390744	52.192610	0.000000	0.000000	0.000000	0.000000	0.000000	1
79.084987	9.424132	0.000000	-0.322975	0.894099	0.000000	0.950645	-80.642912	0.000000	0.000000	0.000000	0.000000	0.000000	2
82.193979	9.424132	0.000000	-0.123566	0.532814	0.000000	0.546955	-88.405949	0.000000	0.000000	0.000000	0.000000	0.000000	1
85.302971	9.424132	0.000000	0.031553	0.188868	0.000000	0.191486	-52.580106	0.000000	0.000000	0.000000	0.000000	0.000000	2
88.411963	9.424132	0.000000	0.061929	0.082154	0.000000	0.102881	-24.100397	0.000000	0.000000	0.000000	0.000000	0.000000	2
91.520955	9.424132	0.000000	-0.001868	-0.000715	0.000000	0.002000	-9.854923	0.000000	0.000000	0.000000	0.000000	0.000000	1
94.629947	9.424132	0.000000	0.000846	-0.011464	0.000000	0.011495	-2.970833	0.000000	0.000000	0.000000	0.000000	0.000000	1
97.738939	9.424132	0.000000	0.023686	-0.012847	0.000000	0.026945	-3.640055	0.000000	0.000000	0.000000	0.000000	0.000000	1
100.847931	9.424132	0.000000	-0.000197	0.020315	0.000000	0.020316	-9.829936	0.000000	0.000000	0.000000	0.000000	0.000000	1
103.956923	9.424132	0.000000	0.006823	0.026521	0.000000	0.027384	-28.627820	0.000000	0.000000	0.000000	0.000000	0.000000	1
107.065915	9.424132	0.000000	-0.007166	0.020350	0.000000	0.021575	-34.654455	0.000000	0.000000	0.000000	0.000000	0.000000	1
110.174908	9.424132	0.000000	-0.012261	0.001679	0.000000	0.012376	-16.297956	0.000000	0.000000	0.000000	0.000000	0.000000	1
113.283900	9.424132	0.000000	-0.013108	0.001855	0.000000	0.013239	-3.007592	0.000000	0.000000	0.000000	0.000000	0.000000	1
116.392892	9.424132	0.000000	-0.012210	0.000416	0.000000	0.012218	-1.761118	0.000000	0.000000	0.000000	0.000000	0.000000	1
119.501884	9.424132	0.000000	-0.006232	-0.005770	0.000000	0.008493	-0.096761	0.000000	0.000000	0.000000	0.000000	0.000000	1
122.610876	9.424132	0.000000	-0.006902	0.002918	0.000000	0.007493	1.414376	0.000000	0.000000	0.000000	0.000000	0.000000	1
125.719868	9.424132	0.000000	-0.007245	0.003787	0.000000	0.008175	0.871390	0.000000	0.000000	0.000000	0.000000	0.000000	1
128.828860	9.424132	0.000000	-0.004295	0.004413	0.000000	0.006158	0.339830	0.000000	0.000000	0.000000	0.000000	0.000000	1
131.937852	9.424132	0.000000	-0.008626	0.007965	0.000000	0.011741	-0.097306	0.000000	0.000000	0.000000	0.000000	0.000000	1
135.046844	9.424132	0.000000	-0.005879	0.010212	0.000000	0.011784	-0.240496	0.000000	0.000000	0.000000	0.000000	0.000000	1
138.155836	9.424132	0.000000	-0.005829	0.009845	0.000000	0.011441	1.990022	0.000000	0.000000	0.000000	0.000000	0.000000	1
141.264829	9.424132	0.000000	-0.017133	0.024016	0.000000	0.029501	3.644736	0.000000	0.000000	0.000000	0.000000	0.000000	1
144.373821	9.424132	0.000000	-0.017933	0.024315	0.000000	0.030213	-0.651509	0.000000	0.000000	0.000000	0.000000	0.000000	1
147.482813	9.424132	0.000000	-0.004938	0.004174	0.000000	0.006466	-2.048482	0.000000	0.000000	0.000000	0.000000	0.000000	1
150.591805	9.424132	0.000000	-0.006293	0.004667	0.000000	0.007835	0.122013	0.000000	0.000000	0.000000	0.000000	0.000000	1
153.700797	9.424132	0.000000	-0.007407	0.007569	0.000000	0.010590	-0.800372	0.000000	0.000000	0.000000	0.000000	0.000000	1
156.809789	9.424132	0.000000	-0.004471	0.001831	0.000000	0.004831	-1.191002	0.000000	0.000000	0.000000	0.000000	0.000000	1
159.918781	9.424132	0.000000	-0.004174	0.001323	0.000000	0.004378	-0.514331	0.000000	0.000000	0.000000	0.000000	0.000000	1
4.469176	12.533124	0.000000	0.000935	0.005083	0.000000	0.005168	-0.306702	0.000000	0.000000	0.000000	0.000000	0.000000	1
7.578168	12.533124	0.000000	0.001841	0.004678	0.000000	0.005027	-0.410443	0.000000	0.000000	0.000000	0.000000	0.000000	1
10.687160	12.533124	0.000000	0.001785	0.004383	0.000000	0.004732	-0.271206	0.000000	0.000000	0.000000	0.000000	0.000000	1
13.796152	12.533124	0.000000	0.000840	0.005432	0.000000	0.005496	0.720723	0.000000	0.000000	0.000000	0.000000	0.000000	1
16.905145	12.533124	0.000000	-0.004591	0.012683	0.000000	0.013489	3.778045	0.000000	0.000000	0.000000	0.000000	0.000000	1
20.014137	12.533124	0.000000	0.007421	0.041574	0.000000	0.042231	2.385386	0.000000	0.000000	0.000000	0.000000	0.000000	1
23.123129	12.533124	0.000000	0.008357	0.038385	0.000000	0.039284	-4.582526	0.000000	0.000000	0.000000	0.000000	0.000000	1
26.232121	12.533124	0.000000	0.005277	0.012112	0.000000	0.013211	-4.709338	0.000000	0.000000	0.000000	0.000000	0.000000	1
29.341113	12.533124	0.000000	0.002515	0.011636	0.000000	0.011905	-0.337878	0.000000	0.000000	0.000000	0.000000	0.000000	1
32.450105	12.533124	0.000000	0.014115	0.016757	0.000000	0.021910	-0.008628	0.000000	0.000000	0.000000	0.000000	0.000000	1
35.559097	12.533124	0.000000	0.013484	0.015569	0.000000	0.020596	-1.557733	0.000000	0.000000	0.000000	0.000000	0.000000	1
38.668089	12.533124	0.000000	0.002506	0.004513	0.000000	0.005162	-0.193993	0.000000	0.000000	0.000000	0.000000	0.000000	1
41.777081	12.533124	0.000000	-0.008577	0.001024	0.000000	0.008638	4.828174	0.000000	0.000000	0.000000	0.000000	0.000000	1
44.886073	12.533124	0.000000	0.004626	0.031033	0.000000	0.031376	5.464741	0.000000	0.000000	0.000000	0.000000	0.000000	1
47.995066	12.533124	0.000000	0.008306	0.032117	0.000000	0.033174	2.251478	0.000000	0.000000	0.000000	0.000000	0.000000	1
51.104058	12.533124	0.000000	0.006308	0.015054	0.000000	0.016322	1.347099	0.000000	0.000000	0.000000	0.000000	0.000000	1
54.213050	12.533124	0.000000	-0.007019	0.015388	0.000000	0.016913	-2.511388	0.000000	0.000000	0.000000	0.000000	0.000000	1
57.322042	12.533124	0.000000	-0.006798	0.004309	0.000000	0.008049	-6.193876	0.000000	0.000000	0.000000	0.000000	0.000000	1
60.431034	12.533124	0.000000	-0.005092	0.004244	0.000000	0.006629	-5.347239	0.000000	0.000000	0.000000	0.000000	0.000000	1
63.540026	12.533124	0.000000	-0.029876	-0.016858	0.000000	0.034304	-0.259845	0.000000	0.000000	0.000000	0.000000	0.000000	2
66.649018	12.533124	0.000000	-0.046677	-0.025133	0.000000	0.053013	34.857747	0.000000	0.000000	0.000000	0.000000	0.000000	2
69.758010	12.533124	0.000000	-0.077675	0.167698	0.000000	0.184814	149.648069	0.000000	0.000000	0.000000	0.000000	0.000000	2
72.867002	12.533124	0.000000	-0.217481	0.878422	0.000000	0.904944	153.679247	0.000000	0.000000	0.000000	0.000000	0.000000	1
75.975994	12.533124	0.000000	-0.473231	1.153488	0.000000	1.246789	-17.587709	0.000000	0.000000	0.000000	0.000000	0.000000	1
79.084987	12.533124	0.000000	-0.417590	0.656871	0.000000	0.778370	-75.997220	0.000000	0.000000	0.000000	0.000000	0.000000	1
82.193979	12.533124	0.000000	-0.317979	0.463593	0.000000	0.562165	-63.022000	0.000000	0.000000	0.000000	0.000000	0.000000	1
85.302971	12.533124	0.000000	0.047467	0.177074	0.000000	0.183326	-50.240719	0.000000	0.000000	0.000000	0.000000	0.000000	1
88.411963	12.533124	0.000000	0.037917	0.131419	0.000000	0.136780	-16.119465	0.000000	0.000000	0.000000	0.000000	0.000000	2
91.520955	12.533124	0.000000	-0.002095	0.081018	0.000000	0.081045	-11.692324	0.000000	0.000000	0.000000	0.000000	0.000000	1
94.629947	12.533124	0.000000	-0.007047	0.038769	0.000000	0.039404	-6.151236	0.000000	0.000000	0.000000	0.000000	0.000000	1
97.738939	12.533124	0.000000	0.025524	0.041493	0.000000	0.048715	-4.749197	0.000000	0.000000	0.000000	0.000000	0.000000	1
100.847931	12.533124	0.000000	0.058543	0.061164	0.000000	0.084666	-12.898539	0.000000	0.000000	0.000000	0.000000	0.000000	2
103.956923	12.533124	0.000000	0.220129	0.188733	0.000000	0.289960	-38.365813	0.000000	0.000000	0.000000	0.000000	0.000000	1
107.065915	12.533124	0.000000	0.195967	0.145842	0.000000	0.244280	-61.967706	0.000000	0.000000	0.000000	0.000000	0.000000	2
110.174908	12.533124	0.000000	-0.014941	0.051748	0.000000	0.053862	-49.963123	0.000000	0.000000	0.000000	0.000000	0.000000	1
113.283900	12.533124	0.000000	-0.016597	-0.003466	0.000000	0.016955	-18.110380	0.000000	0.000000	0.000000	0.000000	0.000000	1
116.392892	12.533124	0.000000	-0.003588	-0.003021	0.000000	0.004690	-2.094782	0.000000	0.000000	0.000000	0.000000	0.000000	1
119.501884	12.533124	0.000000	-0.004961	-0.002355	0.000000	0.005491	0.468618	0.000000	0.000000	0.000000	0.000000	0.000000	1
122.610876	12.533124	0.000000	-0.006345	0.003226	0.000000	0.007118	1.009005	0.000000	0.000000	0.000000	0.000000	0.000000	1
125.719868	12.533124	0.000000	-0.007113	0.004909	0.000000	0.008643	0.482824	0.000000	0.000000	0.000000	0.000000	0.000000	1
128.828860	12.533124	0.000000	-0.004076	0.009471	0.000000	0.010311	0.017467	0.000000	0.000000	0.000000	0.000000	0.000000	1
131.937852	12.533124	0.000000	-0.001186	0.008597	0.000000	0.008678	-0.582792	0.000000	0.000000	0.000000	0.000000	0.000000	1
135.046844	12.533124	0.000000	-0.003883	0.006348	0.000000	0.007441	0.098371	0.000000	0.000000	0.000000	0.000000	0.000000	1
138.155836	12.533124	0.000000	-0.002309	0.004388	0.000000	0.004958	2.247177	0.000000	0.000000	0.000000	0.000000	0.000000	1
141.264829	12.533124	0.000000	-0.016934	0.023528	0.000000	0.028988	1.110862	0.000000	0.000000	0.000000	0.000000	0.000000	1
144.373821	12.533124	0.000000	-0.017602	0.023723	0.000000	0.029540	-3.501250	0.000000	0.000000	0.000000	0.000000	0.000000	1
147.482813	12.533124	0.000000	-0.004942	0.003324	0.000000	0.005956	-2.842461	0.000000	0.000000	0.000000	0.000000	0.000000	1
150.591805	12.533124	0.000000	-0.005450	0.002954	0.000000	0.006199	0.023259	0.000000	0.000000	0.000000	0.000000	0.000000	1
153.700797	12.533124	0.000000	-0.003052	0.005019	0.000000	0.005875	-0.461886	0.000000	0.000000	0.000000	0.000000	0.000000	1
156.809789	12.533124	0.000000	-0.004114	0.001671	0.000000	0.004441	-0.546697	0.000000	0.000000	0.000000	0.000000	0.000000	1
159.918781	12.533124	0.000000	-0.004157	0.001370	0.000000	0.004377	0.124897	0.000000	0.000000	0.000000	0.000000	0.000000	1
4.469176	15.642117	0.000000	0.005415	0.005495	0.000000	0.007715	0.009344	0.000000	0.000000	0.000000	0.000000	0.000000	1
7.578168	15.642117	0.000000	0.003004	0.005768	0.000000	0.006504	-0.159228	0.000000	0.000000	0.000000	0.000000	0.000000	1
10.687160	15.642117	0.000000	0.001072	0.004616	0.000000	0.004739	-0.033132	0.000000	0.000000	0.000000	0.000000	0.000000	1
13.796152	15.642117	0.000000	0.000369	0.005417	0.000000	0.005429	0.617393	0.000000	0.000000	0.000000	0.000000	0.000000	1
16.905145	15.642117	0.000000	-0.001378	0.008962	0.000000	0.009068	3.655102	0.000000	0.000000	0.000000	0.000000	0.000000	1
20.014137	15.642117	0.000000	0.006734	0.033748	0.000000	0.034413	4.042154	0.000000	0.000000	0.000000	0.000000	0.000000	1
23.123129	15.642117	0.000000	0.011453	0.042147	0.000000	0.043675	-2.530616	0.000000	0.000000	0.000000	0.000000	0.000000	1
26.232121	15.642117	0.000000	0.013946	0.015558	0.000000	0.020894	-4.668096	0.000000	0.000000	0.000000	0.000000	0.000000	1
29.341113	15.642117	0.000000	0.002539	0.008070	0.000000	0.008460	-0.190265	0.000000	0.000000	0.000000	0.000000	0.000000	1
32.450105	15.642117	0.000000	0.007231	0.011257	0.000000	0.013380	0.742417	0.000000	0.000000	0.000000	0.000000	0.000000	1
35.559097	15.642117	0.000000	0.009301	0.013689	0.000000	0.016550	-1.189269	0.000000	0.000000	0.000000	0.000000	0.000000	1
38.668089	15.642117	0.000000	-0.000792	0.018499	0.000000	0.018516	-0.453958	0.000000	0.000000	0.000000	0.000000	0.000000	1
41.777081	15.642117	0.000000	-0.019590	0.022859	0.000000	0.030104	3.763120	0.000000	0.000000	0.000000	0.000000	0.000000	1
44.886073	15.642117	0.000000	-0.006948	0.031293	0.000000	0.032055	7.264823	0.000000	0.000000	0.000000	0.000000	0.000000	1
47.995066	15.642117	0.000000	-0.007530	0.037704	0.000000	0.038448	6.056055	0.000000	0.000000	0.000000	0.000000	0.000000	1
51.104058	15.642117	0.000000	-0.022761	0.038478	0.000000	0.044706	5.212884	0.000000	0.000000	0.000000	0.000000	0.000000	1
54.213050	15.642117	0.000000	0.020064	0.039355	0.000000	0.044175	2.690730	0.000000	0.000000	0.000000	0.000000	0.000000	2
57.322042	15.642117	0.000000	0.013094	0.053782	0.000000	0.055353	-3.471577	0.000000	0.000000	0.000000	0.000000	0.000000	1
60.431034	15.642117	0.000000	-0.010224	0.014502	0.000000	0.017744	-7.082956	0.000000	0.000000	0.000000	0.000000	0.000000	1
63.540026	15.642117	0.000000	-0.044926	-0.011403	0.000000	0.046351	-4.176520	0.000000	0.000000	0.000000	0.000000	0.000000	1
66.649018	15.642117	0.000000	-0.063667	0.002836	0.000000	0.063730	42.246006	0.000000	0.000000	0.000000	0.000000	0.000000	2
69.758010	15.642117	0.000000	-0.062673	0.332853	0.000000	0.338702	116.386344	0.000000	0.000000	0.000000	0.000000	0.000000	2
72.867002	15.642117	0.000000	-0.119935	0.833268	0.000000	0.841855	59.760840	0.000000	0.000000	0.000000	0.000000	0.000000	2
75.975994	15.642117	0.000000	-0.321904	0.719885	0.000000	0.788579	-55.628659	0.000000	0.000000	0.000000	0.000000	0.000000	2
79.084987	15.642117	0.000000	-0.443569	0.669518	0.000000	0.803124	-65.754636	0.000000	0.000000	0.000000	0.000000	0.000000	1
82.193979	15.642117	0.000000	-0.352759	0.531181	0.000000	0.637645	-63.061787	0.000000	0.000000	0.000000	0.000000	0.000000	1
85.302971	15.642117	0.000000	0.022134	0.178460	0.000000	0.179827	-55.127539	0.000000	0.000000	0.000000	0.000000	0.000000	2
88.411963	15.642117	0.000000	0.034732	0.121372	0.000000	0.126244	-19.425207	0.000000	0.000000	0.000000	0.000000	0.000000	1
91.520955	15.642117	0.000000	-0.001476	0.095812	0.000000	0.095823	-5.232646	0.000000	0.000000	0.000000	0.000000	0.000000	1
94.629947	15.642117	0.000000	0.012548	0.094770	0.000000	0.095597	-6.943304	0.000000	0.000000	0.000000	0.000000	0.000000	1
97.738939	15.642117	0.000000	0.054452	0.088562	0.000000	0.103963	-0.160031	0.000000	0.000000	0.000000	0.000000	0.000000	1
100.847931	15.642117	0.000000	0.229349	0.202860	0.000000	0.306191	1.422245	0.000000	0.000000	0.000000	0.000000	0.000000	1
103.956923	15.642117	0.000000	0.303109	0.220047	0.000000	0.374561	-14.609523	0.000000	0.000000	0.000000	0.000000	0.000000	1
107.065915	15.642117	0.000000	0.302644	0.211162	0.000000	0.369029	-43.657312	0.000000	0.000000	0.000000	0.000000	0.000000	1
110.174908	15.642117	0.000000	0.178573	0.084337	0.000000	0.197487	-55.289434	0.000000	0.000000	0.000000	0.000000	0.000000	2
113.283900	15.642117	0.000000	0.013181	0.003358	0.000000	0.013602	-25.822576	0.000000	0.000000	0.000000	0.000000	0.000000	2
116.392892	15.642117	0.000000	-0.002373	-0.002053	0.000000	0.003138	-1.118302	0.000000	0.000000	0.000000	0.000000	0.000000	1
119.501884	15.642117	0.000000	-0.006507	0.002347	0.000000	0.006918	2.521182	0.000000	0.000000	0.000000	0.000000	0.000000	1