TITLE = "PIV Result  2097 "
VARIABLES = "X (mm)""Y (mm)""Z (mm)""U (m/s)""V (m/s)""W (m/s)""Speed (m/s)""Vorticity""U-std""V-std""W-std""Speed-std""Vorticity-std""Flag"
ZONE T="ZONE 2097 "
I= 51 , J= 16 , K= 1 , F=POINT
DT=(DOUBLE DOUBLE DOUBLE DOUBLE DOUBLE DOUBLE DOUBLE DOUBLE DOUBLE DOUBLE DOUBLE DOUBLE DOUBLE DOUBLE)
4.469176	3.206148	0.000000	0.000836	0.008534	0.000000	0.008575	0.063609	0.000000	0.000000	0.000000	0.000000	0.000000	1
7.578168	3.206148	0.000000	0.003119	0.010053	0.000000	0.010525	0.058842	0.000000	0.000000	0.000000	0.000000	0.000000	1
10.687160	3.206148	0.000000	0.004341	0.009527	0.000000	0.010470	-0.270380	0.000000	0.000000	0.000000	0.000000	0.000000	1
13.796152	3.206148	0.000000	0.003152	0.006342	0.000000	0.007082	-0.471985	0.000000	0.000000	0.000000	0.000000	0.000000	1
16.905145	3.206148	0.000000	0.003016	0.003472	0.000000	0.004599	-0.354091	0.000000	0.000000	0.000000	0.000000	0.000000	1
20.014137	3.206148	0.000000	0.001375	0.005259	0.000000	0.005436	0.039944	0.000000	0.000000	0.000000	0.000000	0.000000	1
23.123129	3.206148	0.000000	0.003664	0.007015	0.000000	0.007914	0.842216	0.000000	0.000000	0.000000	0.000000	0.000000	1
26.232121	3.206148	0.000000	0.006131	0.008379	0.000000	0.010382	1.703943	0.000000	0.000000	0.000000	0.000000	0.000000	1
29.341113	3.206148	0.000000	0.005001	0.012888	0.000000	0.013824	0.771195	0.000000	0.000000	0.000000	0.000000	0.000000	1
32.450105	3.206148	0.000000	0.004204	0.013320	0.000000	0.013967	-2.465795	0.000000	0.000000	0.000000	0.000000	0.000000	1
35.559097	3.206148	0.000000	0.003820	-0.001354	0.000000	0.004053	-3.998837	0.000000	0.000000	0.000000	0.000000	0.000000	1
38.668089	3.206148	0.000000	0.002054	-0.000302	0.000000	0.002076	-3.559388	0.000000	0.000000	0.000000	0.000000	0.000000	1
41.777081	3.206148	0.000000	0.002494	0.000720	0.000000	0.002596	-1.969966	0.000000	0.000000	0.000000	0.000000	0.000000	1
44.886073	3.206148	0.000000	0.000561	0.000937	0.000000	0.001092	-0.707785	0.000000	0.000000	0.000000	0.000000	0.000000	1
47.995066	3.206148	0.000000	0.001227	-0.000198	0.000000	0.001242	-1.363610	0.000000	0.000000	0.000000	0.000000	0.000000	1
51.104058	3.206148	0.000000	-0.001204	-0.000924	0.000000	0.001518	-1.369934	0.000000	0.000000	0.000000	0.000000	0.000000	1
54.213050	3.206148	0.000000	-0.005290	-0.002339	0.000000	0.005784	-2.954238	0.000000	0.000000	0.000000	0.000000	0.000000	1
57.322042	3.206148	0.000000	-0.001643	-0.005584	0.000000	0.005821	-5.156537	0.000000	0.000000	0.000000	0.000000	0.000000	1
60.431034	3.206148	0.000000	0.009031	-0.003637	0.000000	0.009736	-3.966784	0.000000	0.000000	0.000000	0.000000	0.000000	1
63.540026	3.206148	0.000000	0.003761	-0.000636	0.000000	0.003814	-0.378004	0.000000	0.000000	0.000000	0.000000	0.000000	1
66.649018	3.206148	0.000000	-0.000073	-0.000523	0.000000	0.000528	-1.348116	0.000000	0.000000	0.000000	0.000000	0.000000	1
69.758010	3.206148	0.000000	-0.003019	-0.001541	0.000000	0.003390	2.233754	0.000000	0.000000	0.000000	0.000000	0.000000	1
72.867002	3.206148	0.000000	0.000000	-0.000000	0.000000	0.000000	7.954147	0.000000	0.000000	0.000000	0.000000	0.000000	1
75.975994	3.206148	0.000000	0.006090	-0.004127	0.000000	0.007357	9.179800	0.000000	0.000000	0.000000	0.000000	0.000000	2
79.084987	3.206148	0.000000	0.045440	0.023488	0.000000	0.051151	25.091728	0.000000	0.000000	0.000000	0.000000	0.000000	2
82.193979	3.206148	0.000000	0.054398	0.132114	0.000000	0.142875	56.883462	0.000000	0.000000	0.000000	0.000000	0.000000	1
85.302971	3.206148	0.000000	0.214819	0.333375	0.000000	0.396593	43.333897	0.000000	0.000000	0.000000	0.000000	0.000000	1
88.411963	3.206148	0.000000	0.383360	0.286648	0.000000	0.478678	32.628184	0.000000	0.000000	0.000000	0.000000	0.000000	1
91.520955	3.206148	0.000000	0.467054	0.468129	0.000000	0.661274	74.875126	0.000000	0.000000	0.000000	0.000000	0.000000	2
94.629947	3.206148	0.000000	0.545970	0.677002	0.000000	0.869721	40.406280	0.000000	0.000000	0.000000	0.000000	0.000000	1
97.738939	3.206148	0.000000	0.553220	0.657332	0.000000	0.859149	-36.420749	0.000000	0.000000	0.000000	0.000000	0.000000	2
100.847931	3.206148	0.000000	0.691204	0.755003	0.000000	1.023617	-120.069320	0.000000	0.000000	0.000000	0.000000	0.000000	2
103.956923	3.206148	0.000000	0.353991	0.379525	0.000000	0.518988	-206.822453	0.000000	0.000000	0.000000	0.000000	0.000000	2
107.065915	3.206148	0.000000	-0.012920	0.004048	0.000000	0.013539	-137.468112	0.000000	0.000000	0.000000	0.000000	0.000000	1
110.174908	3.206148	0.000000	-0.005571	0.000725	0.000000	0.005618	-20.704109	0.000000	0.000000	0.000000	0.000000	0.000000	1
113.283900	3.206148	0.000000	-0.001566	-0.002015	0.000000	0.002552	3.374423	0.000000	0.000000	0.000000	0.000000	0.000000	1
116.392892	3.206148	0.000000	0.003710	-0.000868	0.000000	0.003810	3.150511	0.000000	0.000000	0.000000	0.000000	0.000000	1
119.501884	3.206148	0.000000	-0.001202	-0.000171	0.000000	0.001215	1.442056	0.000000	0.000000	0.000000	0.000000	0.000000	1
122.610876	3.206148	0.000000	-0.002936	0.000174	0.000000	0.002941	0.451662	0.000000	0.000000	0.000000	0.000000	0.000000	1
125.719868	3.206148	0.000000	-0.000421	-0.000144	0.000000	0.000444	0.174132	0.000000	0.000000	0.000000	0.000000	0.000000	1
128.828860	3.206148	0.000000	0.000793	0.000413	0.000000	0.000894	0.491460	0.000000	0.000000	0.000000	0.000000	0.000000	1
131.937852	3.206148	0.000000	-0.000144	0.000908	0.000000	0.000920	1.142060	0.000000	0.000000	0.000000	0.000000	0.000000	1
135.046844	3.206148	0.000000	-0.004855	0.008197	0.000000	0.009527	0.713856	0.000000	0.000000	0.000000	0.000000	0.000000	1
138.155836	3.206148	0.000000	-0.004982	0.007802	0.000000	0.009257	-0.074760	0.000000	0.000000	0.000000	0.000000	0.000000	1
141.264829	3.206148	0.000000	-0.002241	0.008378	0.000000	0.008672	0.640074	0.000000	0.000000	0.000000	0.000000	0.000000	1
144.373821	3.206148	0.000000	-0.005581	0.010964	0.000000	0.012303	0.594245	0.000000	0.000000	0.000000	0.000000	0.000000	1
147.482813	3.206148	0.000000	-0.010440	0.004883	0.000000	0.011526	0.036091	0.000000	0.000000	0.000000	0.000000	0.000000	1
150.591805	3.206148	0.000000	-0.008804	0.002606	0.000000	0.009182	1.033604	0.000000	0.000000	0.000000	0.000000	0.000000	1
153.700797	3.206148	0.000000	-0.004958	0.005947	0.000000	0.007743	-0.037209	0.000000	0.000000	0.000000	0.000000	0.000000	1
156.809789	3.206148	0.000000	-0.007828	0.004046	0.000000	0.008811	-2.481691	0.000000	0.000000	0.000000	0.000000	0.000000	1
159.918781	3.206148	0.000000	-0.009516	0.003059	0.000000	0.009996	-2.963609	0.000000	0.000000	0.000000	0.000000	0.000000	1
4.469176	6.315140	0.000000	0.001460	0.007555	0.000000	0.007695	0.081377	0.000000	0.000000	0.000000	0.000000	0.000000	1
7.578168	6.315140	0.000000	0.003138	0.007076	0.000000	0.007740	0.176816	0.000000	0.000000	0.000000	0.000000	0.000000	1
10.687160	6.315140	0.000000	0.003347	0.006962	0.000000	0.007725	-0.180382	0.000000	0.000000	0.000000	0.000000	0.000000	1
13.796152	6.315140	0.000000	0.000767	0.003069	0.000000	0.003163	-0.188984	0.000000	0.000000	0.000000	0.000000	0.000000	1
16.905145	6.315140	0.000000	0.006023	0.004390	0.000000	0.007453	0.069977	0.000000	0.000000	0.000000	0.000000	0.000000	1
20.014137	6.315140	0.000000	0.002664	0.004666	0.000000	0.005373	-0.246848	0.000000	0.000000	0.000000	0.000000	0.000000	1
23.123129	6.315140	0.000000	0.001029	0.004293	0.000000	0.004414	-0.043854	0.000000	0.000000	0.000000	0.000000	0.000000	1
26.232121	6.315140	0.000000	0.001914	0.003822	0.000000	0.004275	1.166121	0.000000	0.000000	0.000000	0.000000	0.000000	1
29.341113	6.315140	0.000000	0.007236	0.010777	0.000000	0.012980	1.495379	0.000000	0.000000	0.000000	0.000000	0.000000	1
32.450105	6.315140	0.000000	0.009393	0.013913	0.000000	0.016787	0.081866	0.000000	0.000000	0.000000	0.000000	0.000000	1
35.559097	6.315140	0.000000	0.017437	0.020584	0.000000	0.026977	-1.360310	0.000000	0.000000	0.000000	0.000000	0.000000	1
38.668089	6.315140	0.000000	0.007987	0.016163	0.000000	0.018029	-3.278496	0.000000	0.000000	0.000000	0.000000	0.000000	1
41.777081	6.315140	0.000000	0.003434	0.000670	0.000000	0.003499	-2.490373	0.000000	0.000000	0.000000	0.000000	0.000000	1
44.886073	6.315140	0.000000	0.002681	0.000357	0.000000	0.002704	-0.618151	0.000000	0.000000	0.000000	0.000000	0.000000	1
47.995066	6.315140	0.000000	0.003311	0.000049	0.000000	0.003312	-1.863154	0.000000	0.000000	0.000000	0.000000	0.000000	1
51.104058	6.315140	0.000000	0.005965	-0.001281	0.000000	0.006101	-2.479439	0.000000	0.000000	0.000000	0.000000	0.000000	1
54.213050	6.315140	0.000000	0.005891	0.012756	0.000000	0.014051	-1.280794	0.000000	0.000000	0.000000	0.000000	0.000000	1
57.322042	6.315140	0.000000	0.016226	0.014039	0.000000	0.021456	0.361402	0.000000	0.000000	0.000000	0.000000	0.000000	1
60.431034	6.315140	0.000000	0.023143	0.010957	0.000000	0.025606	0.216805	0.000000	0.000000	0.000000	0.000000	0.000000	1
63.540026	6.315140	0.000000	-0.003446	-0.001354	0.000000	0.003703	0.131562	0.000000	0.000000	0.000000	0.000000	0.000000	1
66.649018	6.315140	0.000000	-0.000652	0.002262	0.000000	0.002354	-1.469490	0.000000	0.000000	0.000000	0.000000	0.000000	1
69.758010	6.315140	0.000000	0.000682	-0.021879	0.000000	0.021889	2.000275	0.000000	0.000000	0.000000	0.000000	0.000000	1
72.867002	6.315140	0.000000	-0.022446	0.013896	0.000000	0.026399	4.933801	0.000000	0.000000	0.000000	0.000000	0.000000	1
75.975994	6.315140	0.000000	-0.022469	0.009876	0.000000	0.024543	2.659729	0.000000	0.000000	0.000000	0.000000	0.000000	2
79.084987	6.315140	0.000000	0.012181	-0.008254	0.000000	0.014714	15.648311	0.000000	0.000000	0.000000	0.000000	0.000000	1
82.193979	6.315140	0.000000	0.047391	0.083592	0.000000	0.096092	51.015566	0.000000	0.000000	0.000000	0.000000	0.000000	1
85.302971	6.315140	0.000000	0.173234	0.300404	0.000000	0.346775	53.019276	0.000000	0.000000	0.000000	0.000000	0.000000	1
88.411963	6.315140	0.000000	0.314571	0.308993	0.000000	0.440944	35.805271	0.000000	0.000000	0.000000	0.000000	0.000000	1
91.520955	6.315140	0.000000	0.388137	0.313334	0.000000	0.498827	70.622898	0.000000	0.000000	0.000000	0.000000	0.000000	1
94.629947	6.315140	0.000000	0.560469	0.637663	0.000000	0.848964	89.972005	0.000000	0.000000	0.000000	0.000000	0.000000	1
97.738939	6.315140	0.000000	0.829189	0.852673	0.000000	1.189372	44.324351	0.000000	0.000000	0.000000	0.000000	0.000000	1
100.847931	6.315140	0.000000	0.887646	0.869611	0.000000	1.242634	-55.582802	0.000000	0.000000	0.000000	0.000000	0.000000	1
103.956923	6.315140	0.000000	0.733182	0.685341	0.000000	1.003618	-184.605352	0.000000	0.000000	0.000000	0.000000	0.000000	2
107.065915	6.315140	0.000000	0.111833	0.128099	0.000000	0.170048	-183.892377	0.000000	0.000000	0.000000	0.000000	0.000000	2
110.174908	6.315140	0.000000	-0.006672	-0.017815	0.000000	0.019024	-61.987252	0.000000	0.000000	0.000000	0.000000	0.000000	2
113.283900	6.315140	0.000000	-0.009915	-0.009111	0.000000	0.013465	-0.582075	0.000000	0.000000	0.000000	0.000000	0.000000	1
116.392892	6.315140	0.000000	-0.004771	-0.000537	0.000000	0.004801	1.551370	0.000000	0.000000	0.000000	0.000000	0.000000	1
119.501884	6.315140	0.000000	-0.005338	-0.001222	0.000000	0.005476	-0.109784	0.000000	0.000000	0.000000	0.000000	0.000000	1
122.610876	6.315140	0.000000	-0.003792	-0.001255	0.000000	0.003994	-0.214075	0.000000	0.000000	0.000000	0.000000	0.000000	1
125.719868	6.315140	0.000000	-0.000262	-0.001321	0.000000	0.001347	0.494124	0.000000	0.000000	0.000000	0.000000	0.000000	1
128.828860	6.315140	0.000000	0.001286	0.000626	0.000000	0.001431	0.876181	0.000000	0.000000	0.000000	0.000000	0.000000	1
131.937852	6.315140	0.000000	-0.002245	0.002781	0.000000	0.003575	0.652168	0.000000	0.000000	0.000000	0.000000	0.000000	1
135.046844	6.315140	0.000000	-0.003886	0.004305	0.000000	0.005799	-0.102114	0.000000	0.000000	0.000000	0.000000	0.000000	1
138.155836	6.315140	0.000000	-0.004620	0.004964	0.000000	0.006782	-0.489956	0.000000	0.000000	0.000000	0.000000	0.000000	1
141.264829	6.315140	0.000000	-0.002323	0.004806	0.000000	0.005338	0.300539	0.000000	0.000000	0.000000	0.000000	0.000000	1
144.373821	6.315140	0.000000	-0.007583	0.007959	0.000000	0.010993	0.604346	0.000000	0.000000	0.000000	0.000000	0.000000	1
147.482813	6.315140	0.000000	-0.010872	0.011172	0.000000	0.015589	0.137391	0.000000	0.000000	0.000000	0.000000	0.000000	1
150.591805	6.315140	0.000000	-0.011553	0.011149	0.000000	0.016056	0.176870	0.000000	0.000000	0.000000	0.000000	0.000000	1
153.700797	6.315140	0.000000	-0.012620	0.009368	0.000000	0.015717	-1.080099	0.000000	0.000000	0.000000	0.000000	0.000000	1
156.809789	6.315140	0.000000	0.000215	-0.000785	0.000000	0.000814	-2.360808	0.000000	0.000000	0.000000	0.000000	0.000000	1
159.918781	6.315140	0.000000	-0.000221	-0.000887	0.000000	0.000914	-2.182630	0.000000	0.000000	0.000000	0.000000	0.000000	1
4.469176	9.424132	0.000000	0.001096	0.003075	0.000000	0.003264	0.055898	0.000000	0.000000	0.000000	0.000000	0.000000	1
7.578168	9.424132	0.000000	0.001936	0.002604	0.000000	0.003245	0.285288	0.000000	0.000000	0.000000	0.000000	0.000000	1
10.687160	9.424132	0.000000	0.002565	0.003783	0.000000	0.004571	0.032202	0.000000	0.000000	0.000000	0.000000	0.000000	1
13.796152	9.424132	0.000000	0.001034	0.002988	0.000000	0.003162	0.168518	0.000000	0.000000	0.000000	0.000000	0.000000	1
16.905145	9.424132	0.000000	0.004936	0.006189	0.000000	0.007917	0.645438	0.000000	0.000000	0.000000	0.000000	0.000000	1
20.014137	9.424132	0.000000	0.003883	0.006847	0.000000	0.007871	-0.089615	0.000000	0.000000	0.000000	0.000000	0.000000	1
23.123129	9.424132	0.000000	0.004167	0.004140	0.000000	0.005874	-0.472259	0.000000	0.000000	0.000000	0.000000	0.000000	1
26.232121	9.424132	0.000000	0.001371	0.003079	0.000000	0.003371	-0.153279	0.000000	0.000000	0.000000	0.000000	0.000000	1
29.341113	9.424132	0.000000	0.002614	0.002900	0.000000	0.003904	1.943983	0.000000	0.000000	0.000000	0.000000	0.000000	1
32.450105	9.424132	0.000000	0.009238	0.010649	0.000000	0.014097	4.940557	0.000000	0.000000	0.000000	0.000000	0.000000	1
35.559097	9.424132	0.000000	0.016066	0.019492	0.000000	0.025260	3.402932	0.000000	0.000000	0.000000	0.000000	0.000000	1
38.668089	9.424132	0.000000	0.008394	0.021805	0.000000	0.023365	-1.683138	0.000000	0.000000	0.000000	0.000000	0.000000	1
41.777081	9.424132	0.000000	0.004114	0.002250	0.000000	0.004689	-1.290432	0.000000	0.000000	0.000000	0.000000	0.000000	1
44.886073	9.424132	0.000000	0.003493	0.002748	0.000000	0.004444	1.408014	0.000000	0.000000	0.000000	0.000000	0.000000	1
47.995066	9.424132	0.000000	0.010959	0.006251	0.000000	0.012616	-0.103268	0.000000	0.000000	0.000000	0.000000	0.000000	1
51.104058	9.424132	0.000000	0.030851	0.015998	0.000000	0.034752	-1.558195	0.000000	0.000000	0.000000	0.000000	0.000000	1
54.213050	9.424132	0.000000	-0.001041	-0.000601	0.000000	0.001202	1.580891	0.000000	0.000000	0.000000	0.000000	0.000000	1
57.322042	9.424132	0.000000	0.003107	0.003464	0.000000	0.004653	7.076829	0.000000	0.000000	0.000000	0.000000	0.000000	1
60.431034	9.424132	0.000000	0.000523	0.018524	0.000000	0.018531	4.991639	0.000000	0.000000	0.000000	0.000000	0.000000	1
63.540026	9.424132	0.000000	-0.006243	0.012424	0.000000	0.013905	-0.381664	0.000000	0.000000	0.000000	0.000000	0.000000	1
66.649018	9.424132	0.000000	-0.007397	0.000231	0.000000	0.007401	-0.730714	0.000000	0.000000	0.000000	0.000000	0.000000	1
69.758010	9.424132	0.000000	0.005221	0.001415	0.000000	0.005410	2.156941	0.000000	0.000000	0.000000	0.000000	0.000000	2
72.867002	9.424132	0.000000	-0.019616	0.015733	0.000000	0.025145	1.777596	0.000000	0.000000	0.000000	0.000000	0.000000	1
75.975994	9.424132	0.000000	-0.023883	0.002241	0.000000	0.023988	1.124435	0.000000	0.000000	0.000000	0.000000	0.000000	2
79.084987	9.424132	0.000000	0.020137	-0.002167	0.000000	0.020253	9.290047	0.000000	0.000000	0.000000	0.000000	0.000000	1
82.193979	9.424132	0.000000	0.023434	-0.003771	0.000000	0.023736	35.442396	0.000000	0.000000	0.000000	0.000000	0.000000	1
85.302971	9.424132	0.000000	0.082629	0.120068	0.000000	0.145753	58.553154	0.000000	0.000000	0.000000	0.000000	0.000000	2
88.411963	9.424132	0.000000	0.252307	0.283193	0.000000	0.379285	44.255684	0.000000	0.000000	0.000000	0.000000	0.000000	1
91.520955	9.424132	0.000000	0.302426	0.291079	0.000000	0.419748	48.565739	0.000000	0.000000	0.000000	0.000000	0.000000	1
94.629947	9.424132	0.000000	0.363950	0.349703	0.000000	0.504730	113.339808	0.000000	0.000000	0.000000	0.000000	0.000000	1
97.738939	9.424132	0.000000	0.548064	0.727156	0.000000	0.910566	120.134395	0.000000	0.000000	0.000000	0.000000	0.000000	1
100.847931	9.424132	0.000000	0.848633	0.875337	0.000000	1.219177	34.943879	0.000000	0.000000	0.000000	0.000000	0.000000	1
103.956923	9.424132	0.000000	0.916083	0.828966	0.000000	1.235473	-97.842257	0.000000	0.000000	0.000000	0.000000	0.000000	1
107.065915	9.424132	0.000000	0.659709	0.472054	0.000000	0.811203	-186.134480	0.000000	0.000000	0.000000	0.000000	0.000000	1
110.174908	9.424132	0.000000	0.042413	-0.004359	0.000000	0.042636	-112.957311	0.000000	0.000000	0.000000	0.000000	0.000000	2
113.283900	9.424132	0.000000	-0.004529	-0.023576	0.000000	0.024007	-17.450893	0.000000	0.000000	0.000000	0.000000	0.000000	1
116.392892	9.424132	0.000000	0.002124	-0.011328	0.000000	0.011525	0.193726	0.000000	0.000000	0.000000	0.000000	0.000000	1
119.501884	9.424132	0.000000	0.001866	-0.005681	0.000000	0.005979	-0.341895	0.000000	0.000000	0.000000	0.000000	0.000000	1
122.610876	9.424132	0.000000	0.001219	-0.004962	0.000000	0.005109	-0.070309	0.000000	0.000000	0.000000	0.000000	0.000000	1
125.719868	9.424132	0.000000	-0.000820	0.000145	0.000000	0.000833	1.070962	0.000000	0.000000	0.000000	0.000000	0.000000	1
128.828860	9.424132	0.000000	-0.002284	0.003607	0.000000	0.004269	1.188960	0.000000	0.000000	0.000000	0.000000	0.000000	1
131.937852	9.424132	0.000000	-0.002033	0.004238	0.000000	0.004700	0.237819	0.000000	0.000000	0.000000	0.000000	0.000000	1
135.046844	9.424132	0.000000	-0.000031	0.002656	0.000000	0.002656	-0.521699	0.000000	0.000000	0.000000	0.000000	0.000000	1
138.155836	9.424132	0.000000	-0.000617	0.002561	0.000000	0.002635	-0.288652	0.000000	0.000000	0.000000	0.000000	0.000000	1
141.264829	9.424132	0.000000	-0.001742	0.003340	0.000000	0.003767	0.837048	0.000000	0.000000	0.000000	0.000000	0.000000	1
144.373821	9.424132	0.000000	-0.004438	0.007392	0.000000	0.008622	0.988012	0.000000	0.000000	0.000000	0.000000	0.000000	1
147.482813	9.424132	0.000000	-0.010489	0.011869	0.000000	0.015840	-0.792831	0.000000	0.000000	0.000000	0.000000	0.000000	1
150.591805	9.424132	0.000000	-0.011064	0.011572	0.000000	0.016010	-1.750311	0.000000	0.000000	0.000000	0.000000	0.000000	1
153.700797	9.424132	0.000000	-0.010239	0.008963	0.000000	0.013608	-1.558662	0.000000	0.000000	0.000000	0.000000	0.000000	1
156.809789	9.424132	0.000000	0.001982	0.004124	0.000000	0.004575	-0.845829	0.000000	0.000000	0.000000	0.000000	0.000000	1
159.918781	9.424132	0.000000	0.003320	0.000817	0.000000	0.003419	-0.129527	0.000000	0.000000	0.000000	0.000000	0.000000	1
4.469176	12.533124	0.000000	0.000022	0.003542	0.000000	0.003543	-0.144843	0.000000	0.000000	0.000000	0.000000	0.000000	1
7.578168	12.533124	0.000000	0.001782	0.002864	0.000000	0.003373	0.077659	0.000000	0.000000	0.000000	0.000000	0.000000	1
10.687160	12.533124	0.000000	0.001629	0.003946	0.000000	0.004269	-0.021491	0.000000	0.000000	0.000000	0.000000	0.000000	1
13.796152	12.533124	0.000000	0.002902	0.004248	0.000000	0.005145	-0.050405	0.000000	0.000000	0.000000	0.000000	0.000000	1
16.905145	12.533124	0.000000	0.002070	0.004497	0.000000	0.004951	0.161083	0.000000	0.000000	0.000000	0.000000	0.000000	1
20.014137	12.533124	0.000000	0.001863	0.004416	0.000000	0.004793	-0.111650	0.000000	0.000000	0.000000	0.000000	0.000000	1
23.123129	12.533124	0.000000	0.003658	0.003541	0.000000	0.005091	0.482019	0.000000	0.000000	0.000000	0.000000	0.000000	1
26.232121	12.533124	0.000000	0.006360	0.009954	0.000000	0.011812	-0.968763	0.000000	0.000000	0.000000	0.000000	0.000000	1
29.341113	12.533124	0.000000	-0.006911	-0.006900	0.000000	0.009766	-0.042264	0.000000	0.000000	0.000000	0.000000	0.000000	1
32.450105	12.533124	0.000000	-0.008601	-0.008766	0.000000	0.012281	5.268977	0.000000	0.000000	0.000000	0.000000	0.000000	1
35.559097	12.533124	0.000000	0.007967	0.013387	0.000000	0.015578	4.196657	0.000000	0.000000	0.000000	0.000000	0.000000	1
38.668089	12.533124	0.000000	0.011320	0.017707	0.000000	0.021016	1.421166	0.000000	0.000000	0.000000	0.000000	0.000000	1
41.777081	12.533124	0.000000	0.014226	0.033909	0.000000	0.036772	5.118759	0.000000	0.000000	0.000000	0.000000	0.000000	1
44.886073	12.533124	0.000000	-0.005772	0.055998	0.000000	0.056294	5.762945	0.000000	0.000000	0.000000	0.000000	0.000000	1
47.995066	12.533124	0.000000	-0.000164	0.051961	0.000000	0.051961	1.398913	0.000000	0.000000	0.000000	0.000000	0.000000	1
51.104058	12.533124	0.000000	0.007714	0.014914	0.000000	0.016790	2.121210	0.000000	0.000000	0.000000	0.000000	0.000000	1
54.213050	12.533124	0.000000	-0.008062	0.000271	0.000000	0.008067	7.255447	0.000000	0.000000	0.000000	0.000000	0.000000	1
57.322042	12.533124	0.000000	-0.018070	0.003527	0.000000	0.018411	10.874637	0.000000	0.000000	0.000000	0.000000	0.000000	1
60.431034	12.533124	0.000000	-0.014687	0.019460	0.000000	0.024380	5.151732	0.000000	0.000000	0.000000	0.000000	0.000000	1
63.540026	12.533124	0.000000	-0.009292	0.009351	0.000000	0.013182	-1.125267	0.000000	0.000000	0.000000	0.000000	0.000000	1
66.649018	12.533124	0.000000	-0.004625	0.001752	0.000000	0.004946	3.913102	0.000000	0.000000	0.000000	0.000000	0.000000	1
69.758010	12.533124	0.000000	0.003149	0.022393	0.000000	0.022614	5.072473	0.000000	0.000000	0.000000	0.000000	0.000000	1
72.867002	12.533124	0.000000	-0.037155	-0.000985	0.000000	0.037168	0.412041	0.000000	0.000000	0.000000	0.000000	0.000000	1
75.975994	12.533124	0.000000	-0.043381	-0.014666	0.000000	0.045793	1.956334	0.000000	0.000000	0.000000	0.000000	0.000000	1
79.084987	12.533124	0.000000	-0.028592	-0.012376	0.000000	0.031156	8.987880	0.000000	0.000000	0.000000	0.000000	0.000000	1
82.193979	12.533124	0.000000	0.008685	0.013539	0.000000	0.016085	17.944933	0.000000	0.000000	0.000000	0.000000	0.000000	1
85.302971	12.533124	0.000000	0.024544	0.049142	0.000000	0.054931	42.413636	0.000000	0.000000	0.000000	0.000000	0.000000	1
88.411963	12.533124	0.000000	0.197847	0.217733	0.000000	0.294195	44.059903	0.000000	0.000000	0.000000	0.000000	0.000000	1
91.520955	12.533124	0.000000	0.245233	0.269874	0.000000	0.364652	29.072074	0.000000	0.000000	0.000000	0.000000	0.000000	1
94.629947	12.533124	0.000000	0.335666	0.336633	0.000000	0.475387	74.085668	0.000000	0.000000	0.000000	0.000000	0.000000	1
97.738939	12.533124	0.000000	0.439075	0.694742	0.000000	0.821860	82.370628	0.000000	0.000000	0.000000	0.000000	0.000000	1
100.847931	12.533124	0.000000	0.588647	0.737370	0.000000	0.943515	54.296473	0.000000	0.000000	0.000000	0.000000	0.000000	1
103.956923	12.533124	0.000000	0.945738	0.752024	0.000000	1.208288	6.491181	0.000000	0.000000	0.000000	0.000000	0.000000	1
107.065915	12.533124	0.000000	0.663485	0.529681	0.000000	0.848984	-78.715228	0.000000	0.000000	0.000000	0.000000	0.000000	1
110.174908	12.533124	0.000000	0.267916	0.082742	0.000000	0.280402	-85.974404	0.000000	0.000000	0.000000	0.000000	0.000000	2
113.283900	12.533124	0.000000	0.019934	-0.020645	0.000000	0.028698	-32.614231	0.000000	0.000000	0.000000	0.000000	0.000000	1
116.392892	12.533124	0.000000	0.005128	-0.010452	0.000000	0.011642	-2.087790	0.000000	0.000000	0.000000	0.000000	0.000000	1
119.501884	12.533124	0.000000	0.001474	-0.003049	0.000000	0.003387	-0.249630	0.000000	0.000000	0.000000	0.000000	0.000000	1
122.610876	12.533124	0.000000	0.001502	-0.002155	0.000000	0.002627	0.273128	0.000000	0.000000	0.000000	0.000000	0.000000	1
125.719868	12.533124	0.000000	-0.000256	0.001056	0.000000	0.001086	0.799401	0.000000	0.000000	0.000000	0.000000	0.000000	1
128.828860	12.533124	0.000000	-0.003361	0.006123	0.000000	0.006985	0.335335	0.000000	0.000000	0.000000	0.000000	0.000000	1
131.937852	12.533124	0.000000	-0.004448	0.006850	0.000000	0.008167	0.221989	0.000000	0.000000	0.000000	0.000000	0.000000	1
135.046844	12.533124	0.000000	-0.000369	0.004727	0.000000	0.004741	0.626613	0.000000	0.000000	0.000000	0.000000	0.000000	1
138.155836	12.533124	0.000000	-0.000074	0.004419	0.000000	0.004420	0.618113	0.000000	0.000000	0.000000	0.000000	0.000000	1
141.264829	12.533124	0.000000	-0.003587	0.007021	0.000000	0.007884	1.400210	0.000000	0.000000	0.000000	0.000000	0.000000	1
144.373821	12.533124	0.000000	-0.008938	0.013244	0.000000	0.015978	0.872192	0.000000	0.000000	0.000000	0.000000	0.000000	1
147.482813	12.533124	0.000000	-0.004485	0.010582	0.000000	0.011493	-2.052299	0.000000	0.000000	0.000000	0.000000	0.000000	1
150.591805	12.533124	0.000000	-0.005888	-0.000941	0.000000	0.005963	-2.283350	0.000000	0.000000	0.000000	0.000000	0.000000	1
153.700797	12.533124	0.000000	-0.005519	-0.000516	0.000000	0.005543	-0.131170	0.000000	0.000000	0.000000	0.000000	0.000000	1
156.809789	12.533124	0.000000	-0.001778	0.004997	0.000000	0.005303	0.856959	0.000000	0.000000	0.000000	0.000000	0.000000	1
159.918781	12.533124	0.000000	-0.001300	0.007029	0.000000	0.007148	1.027822	0.000000	0.000000	0.000000	0.000000	0.000000	1
4.469176	15.642117	0.000000	-0.001465	0.006270	0.000000	0.006439	-0.211125	0.000000	0.000000	0.000000	0.000000	0.000000	1
7.578168	15.642117	0.000000	0.002702	0.004502	0.000000	0.005250	0.133380	0.000000	0.000000	0.000000	0.000000	0.000000	1
10.687160	15.642117	0.000000	0.002116	0.005208	0.000000	0.005622	0.106617	0.000000	0.000000	0.000000	0.000000	0.000000	1
13.796152	15.642117	0.000000	0.002643	0.002293	0.000000	0.003499	-0.056572	0.000000	0.000000	0.000000	0.000000	0.000000	1
16.905145	15.642117	0.000000	0.004312	0.002591	0.000000	0.005031	0.109693	0.000000	0.000000	0.000000	0.000000	0.000000	1
20.014137	15.642117	0.000000	0.004043	0.002625	0.000000	0.004821	-0.250235	0.000000	0.000000	0.000000	0.000000	0.000000	1
23.123129	15.642117	0.000000	0.002633	0.001939	0.000000	0.003270	0.213246	0.000000	0.000000	0.000000	0.000000	0.000000	1
26.232121	15.642117	0.000000	0.006142	0.009170	0.000000	0.011036	-2.204773	0.000000	0.000000	0.000000	0.000000	0.000000	1
29.341113	15.642117	0.000000	-0.008593	-0.003232	0.000000	0.009180	-4.307868	0.000000	0.000000	0.000000	0.000000	0.000000	1
32.450105	15.642117	0.000000	-0.007965	0.003143	0.000000	0.008563	-0.656500	0.000000	0.000000	0.000000	0.000000	0.000000	1
35.559097	15.642117	0.000000	0.011218	0.020190	0.000000	0.023097	-1.010608	0.000000	0.000000	0.000000	0.000000	0.000000	1
38.668089	15.642117	0.000000	0.007213	0.015338	0.000000	0.016950	-1.927147	0.000000	0.000000	0.000000	0.000000	0.000000	1
41.777081	15.642117	0.000000	-0.001357	0.019054	0.000000	0.019102	4.776213	0.000000	0.000000	0.000000	0.000000	0.000000	1
44.886073	15.642117	0.000000	-0.013214	0.056299	0.000000	0.057829	6.687324	0.000000	0.000000	0.000000	0.000000	0.000000	1
47.995066	15.642117	0.000000	-0.016757	0.055683	0.000000	0.058150	-1.228503	0.000000	0.000000	0.000000	0.000000	0.000000	1
51.104058	15.642117	0.000000	-0.034990	0.022030	0.000000	0.041347	-0.418871	0.000000	0.000000	0.000000	0.000000	0.000000	2
54.213050	15.642117	0.000000	-0.040054	0.020264	0.000000	0.044888	8.728663	0.000000	0.000000	0.000000	0.000000	0.000000	2
57.322042	15.642117	0.000000	-0.047018	0.043803	0.000000	0.064260	9.955200	0.000000	0.000000	0.000000	0.000000	0.000000	1
60.431034	15.642117	0.000000	-0.031067	0.062383	0.000000	0.069690	3.256045	0.000000	0.000000	0.000000	0.000000	0.000000	2
63.540026	15.642117	0.000000	-0.020979	0.023290	0.000000	0.031346	-0.358578	0.000000	0.000000	0.000000	0.000000	0.000000	1
66.649018	15.642117	0.000000	-0.003689	0.030751	0.000000	0.030971	5.083720	0.000000	0.000000	0.000000	0.000000	0.000000	1
69.758010	15.642117	0.000000	-0.020603	0.072397	0.000000	0.075272	4.996689	0.000000	0.000000	0.000000	0.000000	0.000000	1
72.867002	15.642117	0.000000	-0.052149	0.066413	0.000000	0.084440	-2.041436	0.000000	0.000000	0.000000	0.000000	0.000000	1
75.975994	15.642117	0.000000	-0.049164	0.039766	0.000000	0.063233	-6.205262	0.000000	0.000000	0.000000	0.000000	0.000000	1
79.084987	15.642117	0.000000	-0.040188	0.012333	0.000000	0.042038	-2.255623	0.000000	0.000000	0.000000	0.000000	0.000000	1
82.193979	15.642117	0.000000	-0.000011	0.043540	0.000000	0.043540	0.618601	0.000000	0.000000	0.000000	0.000000	0.000000	1
85.302971	15.642117	0.000000	0.023447	0.046989	0.000000	0.052514	20.842881	0.000000	0.000000	0.000000	0.000000	0.000000	1
88.411963	15.642117	0.000000	0.160007	0.168990	0.000000	0.232723	27.120740	0.000000	0.000000	0.000000	0.000000	0.000000	2
91.520955	15.642117	0.000000	0.233032	0.217197	0.000000	0.318557	19.538855	0.000000	0.000000	0.000000	0.000000	0.000000	1
94.629947	15.642117	0.000000	0.353419	0.346142	0.000000	0.494691	48.061661	0.000000	0.000000	0.000000	0.000000	0.000000	1
97.738939	15.642117	0.000000	0.408051	0.543572	0.000000	0.679688	61.742434	0.000000	0.000000	0.000000	0.000000	0.000000	2
100.847931	15.642117	0.000000	0.662318	0.590883	0.000000	0.887585	70.597876	0.000000	0.000000	0.000000	0.000000	0.000000	1
103.956923	15.642117	0.000000	0.554506	0.803439	0.000000	0.976213	23.702474	0.000000	0.000000	0.000000	0.000000	0.000000	2
107.065915	15.642117	0.000000	0.345291	0.347105	0.000000	0.489600	-34.355356	0.000000	0.000000	0.000000	0.000000	0.000000	1
110.174908	15.642117	0.000000	0.254037	0.238736	0.000000	0.348611	-48.980071	0.000000	0.000000	0.000000	0.000000	0.000000	1
113.283900	15.642117	0.000000	0.070664	-0.010942	0.000000	0.071506	-34.976471	0.000000	0.000000	0.000000	0.000000	0.000000	1
116.392892	15.642117	0.000000	0.016751	-0.002449	0.000000	0.016929	-2.695512	0.000000	0.000000	0.000000	0.000000	0.000000	1
119.501884	15.642117	0.000000	0.010298	-0.003077	0.000000	0.010748	-1.816910	0.000000	0.000000	0.000000	0.000000	0.000000	1
122.610876	15.642117	0.000000	0.002189	0.000844	0.000000	0.002346	-0.031341	0.000000	0.000000	0.000000	0.000000	0.000000	1