TITLE = "PIV Result  2697 "
VARIABLES = "X (mm)""Y (mm)""Z (mm)""U (m/s)""V (m/s)""W (m/s)""Speed (m/s)""Vorticity""U-std""V-std""W-std""Speed-std""Vorticity-std""Flag"
ZONE T="ZONE 2697 "
I= 51 , J= 16 , K= 1 , F=POINT
DT=(DOUBLE DOUBLE DOUBLE DOUBLE DOUBLE DOUBLE DOUBLE DOUBLE DOUBLE DOUBLE DOUBLE DOUBLE DOUBLE DOUBLE)
4.469176	3.206148	0.000000	-0.000258	0.006918	0.000000	0.006922	-0.772555	0.000000	0.000000	0.000000	0.000000	0.000000	1
7.578168	3.206148	0.000000	0.000898	0.004618	0.000000	0.004705	-0.289645	0.000000	0.000000	0.000000	0.000000	0.000000	1
10.687160	3.206148	0.000000	0.000785	0.004607	0.000000	0.004674	-0.123971	0.000000	0.000000	0.000000	0.000000	0.000000	1
13.796152	3.206148	0.000000	0.002592	0.005861	0.000000	0.006409	-0.355758	0.000000	0.000000	0.000000	0.000000	0.000000	1
16.905145	3.206148	0.000000	0.002590	0.005840	0.000000	0.006388	1.351950	0.000000	0.000000	0.000000	0.000000	0.000000	1
20.014137	3.206148	0.000000	0.012735	0.015771	0.000000	0.020271	3.285628	0.000000	0.000000	0.000000	0.000000	0.000000	1
23.123129	3.206148	0.000000	0.010974	0.014650	0.000000	0.018304	3.047552	0.000000	0.000000	0.000000	0.000000	0.000000	1
26.232121	3.206148	0.000000	0.009664	0.010840	0.000000	0.014522	1.710402	0.000000	0.000000	0.000000	0.000000	0.000000	1
29.341113	3.206148	0.000000	0.009099	0.011530	0.000000	0.014688	0.215649	0.000000	0.000000	0.000000	0.000000	0.000000	1
32.450105	3.206148	0.000000	0.006336	0.010177	0.000000	0.011988	-1.657091	0.000000	0.000000	0.000000	0.000000	0.000000	1
35.559097	3.206148	0.000000	0.002361	0.000516	0.000000	0.002417	-2.430628	0.000000	0.000000	0.000000	0.000000	0.000000	1
38.668089	3.206148	0.000000	0.001872	-0.000345	0.000000	0.001904	-3.190434	0.000000	0.000000	0.000000	0.000000	0.000000	1
41.777081	3.206148	0.000000	0.000110	-0.000765	0.000000	0.000773	-2.872332	0.000000	0.000000	0.000000	0.000000	0.000000	1
44.886073	3.206148	0.000000	0.000109	0.001046	0.000000	0.001052	-1.007463	0.000000	0.000000	0.000000	0.000000	0.000000	1
47.995066	3.206148	0.000000	0.002596	0.001300	0.000000	0.002903	-0.617256	0.000000	0.000000	0.000000	0.000000	0.000000	1
51.104058	3.206148	0.000000	0.004946	-0.000021	0.000000	0.004946	16.934537	0.000000	0.000000	0.000000	0.000000	0.000000	1
54.213050	3.206148	0.000000	0.003273	0.000413	0.000000	0.003299	55.471268	0.000000	0.000000	0.000000	0.000000	0.000000	1
57.322042	3.206148	0.000000	-0.263762	-0.001709	0.000000	0.263768	74.815173	0.000000	0.000000	0.000000	0.000000	0.000000	2
60.431034	3.206148	0.000000	-0.370716	-0.002065	0.000000	0.370722	76.052860	0.000000	0.000000	0.000000	0.000000	0.000000	2
63.540026	3.206148	0.000000	-0.369197	0.043406	0.000000	0.371740	65.509701	0.000000	0.000000	0.000000	0.000000	0.000000	2
66.649018	3.206148	0.000000	-0.368438	0.061824	0.000000	0.373589	46.735412	0.000000	0.000000	0.000000	0.000000	0.000000	2
69.758010	3.206148	0.000000	-0.370966	0.225629	0.000000	0.434194	67.604208	0.000000	0.000000	0.000000	0.000000	0.000000	2
72.867002	3.206148	0.000000	-0.600199	0.353280	0.000000	0.696452	94.885867	0.000000	0.000000	0.000000	0.000000	0.000000	2
75.975994	3.206148	0.000000	-0.734593	0.786676	0.000000	1.076330	19.372342	0.000000	0.000000	0.000000	0.000000	0.000000	2
79.084987	3.206148	0.000000	-0.949517	0.793705	0.000000	1.237559	-159.616301	0.000000	0.000000	0.000000	0.000000	0.000000	1
82.193979	3.206148	0.000000	-0.310656	0.310650	0.000000	0.439329	-179.326849	0.000000	0.000000	0.000000	0.000000	0.000000	2
85.302971	3.206148	0.000000	-0.019553	0.083344	0.000000	0.085607	-67.304655	0.000000	0.000000	0.000000	0.000000	0.000000	2
88.411963	3.206148	0.000000	-0.029151	0.007675	0.000000	0.030144	-22.431562	0.000000	0.000000	0.000000	0.000000	0.000000	1
91.520955	3.206148	0.000000	-0.018251	-0.003835	0.000000	0.018650	-6.103371	0.000000	0.000000	0.000000	0.000000	0.000000	1
94.629947	3.206148	0.000000	-0.002763	-0.010749	0.000000	0.011098	-2.773823	0.000000	0.000000	0.000000	0.000000	0.000000	1
97.738939	3.206148	0.000000	0.001532	-0.001874	0.000000	0.002420	0.202131	0.000000	0.000000	0.000000	0.000000	0.000000	1
100.847931	3.206148	0.000000	-0.001402	0.000177	0.000000	0.001413	2.045693	0.000000	0.000000	0.000000	0.000000	0.000000	1
103.956923	3.206148	0.000000	-0.003534	0.000258	0.000000	0.003543	3.973727	0.000000	0.000000	0.000000	0.000000	0.000000	1
107.065915	3.206148	0.000000	-0.004462	-0.000168	0.000000	0.004466	4.897456	0.000000	0.000000	0.000000	0.000000	0.000000	1
110.174908	3.206148	0.000000	-0.002333	-0.000330	0.000000	0.002356	4.423537	0.000000	0.000000	0.000000	0.000000	0.000000	1
113.283900	3.206148	0.000000	-0.001133	0.000209	0.000000	0.001152	3.493024	0.000000	0.000000	0.000000	0.000000	0.000000	1
116.392892	3.206148	0.000000	0.000157	0.000528	0.000000	0.000551	3.215443	0.000000	0.000000	0.000000	0.000000	0.000000	1
119.501884	3.206148	0.000000	0.000331	0.000386	0.000000	0.000509	2.545021	0.000000	0.000000	0.000000	0.000000	0.000000	1
122.610876	3.206148	0.000000	-0.000693	0.000280	0.000000	0.000747	1.963557	0.000000	0.000000	0.000000	0.000000	0.000000	1
125.719868	3.206148	0.000000	0.001987	0.000179	0.000000	0.001995	1.534985	0.000000	0.000000	0.000000	0.000000	0.000000	1
128.828860	3.206148	0.000000	0.001798	-0.000326	0.000000	0.001828	2.072979	0.000000	0.000000	0.000000	0.000000	0.000000	1
131.937852	3.206148	0.000000	0.000055	-0.000781	0.000000	0.000783	3.576195	0.000000	0.000000	0.000000	0.000000	0.000000	1
135.046844	3.206148	0.000000	-0.008668	0.013159	0.000000	0.015757	0.655763	0.000000	0.000000	0.000000	0.000000	0.000000	1
138.155836	3.206148	0.000000	-0.002948	0.005157	0.000000	0.005940	-1.796410	0.000000	0.000000	0.000000	0.000000	0.000000	1
141.264829	3.206148	0.000000	-0.001712	0.003781	0.000000	0.004151	0.411803	0.000000	0.000000	0.000000	0.000000	0.000000	1
144.373821	3.206148	0.000000	-0.003924	0.004768	0.000000	0.006175	1.194507	0.000000	0.000000	0.000000	0.000000	0.000000	1
147.482813	3.206148	0.000000	-0.005449	0.006923	0.000000	0.008810	0.812784	0.000000	0.000000	0.000000	0.000000	0.000000	1
150.591805	3.206148	0.000000	-0.008235	0.009369	0.000000	0.012473	-0.096342	0.000000	0.000000	0.000000	0.000000	0.000000	1
153.700797	3.206148	0.000000	-0.011132	0.006059	0.000000	0.012674	-1.052667	0.000000	0.000000	0.000000	0.000000	0.000000	1
156.809789	3.206148	0.000000	-0.005392	0.004839	0.000000	0.007245	-0.970288	0.000000	0.000000	0.000000	0.000000	0.000000	1
159.918781	3.206148	0.000000	-0.005579	0.005088	0.000000	0.007551	-0.723234	0.000000	0.000000	0.000000	0.000000	0.000000	1
4.469176	6.315140	0.000000	0.003212	0.005209	0.000000	0.006119	-0.112043	0.000000	0.000000	0.000000	0.000000	0.000000	1
7.578168	6.315140	0.000000	0.001797	0.007074	0.000000	0.007299	0.205840	0.000000	0.000000	0.000000	0.000000	0.000000	1
10.687160	6.315140	0.000000	0.001356	0.009757	0.000000	0.009851	-0.010335	0.000000	0.000000	0.000000	0.000000	0.000000	1
13.796152	6.315140	0.000000	0.002639	0.006378	0.000000	0.006902	-0.315210	0.000000	0.000000	0.000000	0.000000	0.000000	1
16.905145	6.315140	0.000000	0.002758	0.004934	0.000000	0.005652	1.040395	0.000000	0.000000	0.000000	0.000000	0.000000	1
20.014137	6.315140	0.000000	0.001696	0.002625	0.000000	0.003125	1.811709	0.000000	0.000000	0.000000	0.000000	0.000000	1
23.123129	6.315140	0.000000	-0.000457	0.003643	0.000000	0.003671	1.298939	0.000000	0.000000	0.000000	0.000000	0.000000	1
26.232121	6.315140	0.000000	0.007142	0.009033	0.000000	0.011516	1.568355	0.000000	0.000000	0.000000	0.000000	0.000000	1
29.341113	6.315140	0.000000	0.009043	0.011502	0.000000	0.014632	1.059541	0.000000	0.000000	0.000000	0.000000	0.000000	1
32.450105	6.315140	0.000000	0.007079	0.010487	0.000000	0.012652	-0.352729	0.000000	0.000000	0.000000	0.000000	0.000000	1
35.559097	6.315140	0.000000	0.007405	0.008383	0.000000	0.011185	-0.828757	0.000000	0.000000	0.000000	0.000000	0.000000	1
38.668089	6.315140	0.000000	0.008652	0.008392	0.000000	0.012053	-2.239371	0.000000	0.000000	0.000000	0.000000	0.000000	1
41.777081	6.315140	0.000000	0.006292	-0.005226	0.000000	0.008180	-2.315176	0.000000	0.000000	0.000000	0.000000	0.000000	1
44.886073	6.315140	0.000000	0.004374	-0.005310	0.000000	0.006880	-0.297071	0.000000	0.000000	0.000000	0.000000	0.000000	1
47.995066	6.315140	0.000000	0.005810	-0.001893	0.000000	0.006111	2.907590	0.000000	0.000000	0.000000	0.000000	0.000000	1
51.104058	6.315140	0.000000	0.003895	-0.002275	0.000000	0.004511	22.301451	0.000000	0.000000	0.000000	0.000000	0.000000	1
54.213050	6.315140	0.000000	-0.200454	0.006978	0.000000	0.200576	46.849800	0.000000	0.000000	0.000000	0.000000	0.000000	2
57.322042	6.315140	0.000000	-0.477669	0.066842	0.000000	0.482323	47.982219	0.000000	0.000000	0.000000	0.000000	0.000000	2
60.431034	6.315140	0.000000	-0.572336	0.106696	0.000000	0.582196	44.434783	0.000000	0.000000	0.000000	0.000000	0.000000	2
63.540026	6.315140	0.000000	-0.576751	0.142818	0.000000	0.594171	46.165600	0.000000	0.000000	0.000000	0.000000	0.000000	2
66.649018	6.315140	0.000000	-0.367679	0.241517	0.000000	0.439907	57.755747	0.000000	0.000000	0.000000	0.000000	0.000000	1
69.758010	6.315140	0.000000	-0.373494	0.333233	0.000000	0.500542	110.305500	0.000000	0.000000	0.000000	0.000000	0.000000	1
72.867002	6.315140	0.000000	-0.607042	0.779647	0.000000	0.988104	101.812490	0.000000	0.000000	0.000000	0.000000	0.000000	1
75.975994	6.315140	0.000000	-0.774073	0.896493	0.000000	1.184436	-8.136096	0.000000	0.000000	0.000000	0.000000	0.000000	1
79.084987	6.315140	0.000000	-0.586535	0.857315	0.000000	1.038755	-154.848947	0.000000	0.000000	0.000000	0.000000	0.000000	2
82.193979	6.315140	0.000000	-0.102908	0.281763	0.000000	0.299968	-158.305086	0.000000	0.000000	0.000000	0.000000	0.000000	2
85.302971	6.315140	0.000000	-0.011180	0.124418	0.000000	0.124920	-55.940069	0.000000	0.000000	0.000000	0.000000	0.000000	2
88.411963	6.315140	0.000000	-0.009955	-0.008573	0.000000	0.013138	-18.878037	0.000000	0.000000	0.000000	0.000000	0.000000	1
91.520955	6.315140	0.000000	-0.002445	-0.004791	0.000000	0.005379	-1.799965	0.000000	0.000000	0.000000	0.000000	0.000000	1
94.629947	6.315140	0.000000	0.004411	-0.008070	0.000000	0.009197	0.043241	0.000000	0.000000	0.000000	0.000000	0.000000	1
97.738939	6.315140	0.000000	0.005386	-0.007241	0.000000	0.009024	1.267413	0.000000	0.000000	0.000000	0.000000	0.000000	1
100.847931	6.315140	0.000000	-0.005183	-0.005383	0.000000	0.007472	1.546639	0.000000	0.000000	0.000000	0.000000	0.000000	1
103.956923	6.315140	0.000000	-0.014308	0.001585	0.000000	0.014395	1.905812	0.000000	0.000000	0.000000	0.000000	0.000000	1
107.065915	6.315140	0.000000	-0.021311	0.002203	0.000000	0.021425	2.853364	0.000000	0.000000	0.000000	0.000000	0.000000	1
110.174908	6.315140	0.000000	-0.023060	-0.002120	0.000000	0.023157	1.985715	0.000000	0.000000	0.000000	0.000000	0.000000	1
113.283900	6.315140	0.000000	-0.008266	-0.008599	0.000000	0.011928	0.817779	0.000000	0.000000	0.000000	0.000000	0.000000	1
116.392892	6.315140	0.000000	-0.007098	-0.001787	0.000000	0.007319	0.881171	0.000000	0.000000	0.000000	0.000000	0.000000	1
119.501884	6.315140	0.000000	-0.008741	0.000497	0.000000	0.008755	0.533599	0.000000	0.000000	0.000000	0.000000	0.000000	1
122.610876	6.315140	0.000000	-0.005816	-0.000411	0.000000	0.005831	0.917113	0.000000	0.000000	0.000000	0.000000	0.000000	1
125.719868	6.315140	0.000000	-0.000544	0.003273	0.000000	0.003318	1.389610	0.000000	0.000000	0.000000	0.000000	0.000000	1
128.828860	6.315140	0.000000	0.001226	0.008527	0.000000	0.008614	0.961211	0.000000	0.000000	0.000000	0.000000	0.000000	1
131.937852	6.315140	0.000000	-0.009745	0.016536	0.000000	0.019194	0.848163	0.000000	0.000000	0.000000	0.000000	0.000000	1
135.046844	6.315140	0.000000	-0.010502	0.017509	0.000000	0.020417	-0.777942	0.000000	0.000000	0.000000	0.000000	0.000000	1
138.155836	6.315140	0.000000	-0.002937	0.005297	0.000000	0.006057	-1.421679	0.000000	0.000000	0.000000	0.000000	0.000000	1
141.264829	6.315140	0.000000	-0.001650	0.002797	0.000000	0.003247	0.602234	0.000000	0.000000	0.000000	0.000000	0.000000	1
144.373821	6.315140	0.000000	-0.007264	0.007603	0.000000	0.010515	0.882358	0.000000	0.000000	0.000000	0.000000	0.000000	1
147.482813	6.315140	0.000000	-0.006306	0.007035	0.000000	0.009447	0.277396	0.000000	0.000000	0.000000	0.000000	0.000000	1
150.591805	6.315140	0.000000	-0.008003	0.008287	0.000000	0.011520	-0.375554	0.000000	0.000000	0.000000	0.000000	0.000000	1
153.700797	6.315140	0.000000	-0.010216	0.007222	0.000000	0.012511	-1.132857	0.000000	0.000000	0.000000	0.000000	0.000000	1
156.809789	6.315140	0.000000	-0.004773	0.002406	0.000000	0.005345	-0.924430	0.000000	0.000000	0.000000	0.000000	0.000000	1
159.918781	6.315140	0.000000	-0.002304	0.001555	0.000000	0.002779	-0.474236	0.000000	0.000000	0.000000	0.000000	0.000000	1
4.469176	9.424132	0.000000	0.002971	0.004519	0.000000	0.005408	0.688925	0.000000	0.000000	0.000000	0.000000	0.000000	1
7.578168	9.424132	0.000000	0.001166	0.005192	0.000000	0.005321	0.678661	0.000000	0.000000	0.000000	0.000000	0.000000	1
10.687160	9.424132	0.000000	0.001169	0.007001	0.000000	0.007098	0.018925	0.000000	0.000000	0.000000	0.000000	0.000000	1
13.796152	9.424132	0.000000	0.001338	0.004866	0.000000	0.005046	-0.249679	0.000000	0.000000	0.000000	0.000000	0.000000	1
16.905145	9.424132	0.000000	0.002266	0.005128	0.000000	0.005607	1.395095	0.000000	0.000000	0.000000	0.000000	0.000000	1
20.014137	9.424132	0.000000	0.003708	0.017410	0.000000	0.017801	1.048448	0.000000	0.000000	0.000000	0.000000	0.000000	1
23.123129	9.424132	0.000000	0.001021	0.015631	0.000000	0.015664	-1.459462	0.000000	0.000000	0.000000	0.000000	0.000000	1
26.232121	9.424132	0.000000	-0.000047	0.003189	0.000000	0.003190	-0.160507	0.000000	0.000000	0.000000	0.000000	0.000000	1
29.341113	9.424132	0.000000	0.005284	0.008849	0.000000	0.010307	0.904443	0.000000	0.000000	0.000000	0.000000	0.000000	1
32.450105	9.424132	0.000000	0.002263	0.005884	0.000000	0.006304	-0.211834	0.000000	0.000000	0.000000	0.000000	0.000000	1
35.559097	9.424132	0.000000	0.000556	0.003564	0.000000	0.003607	-0.489367	0.000000	0.000000	0.000000	0.000000	0.000000	1
38.668089	9.424132	0.000000	0.008556	-0.001015	0.000000	0.008616	-1.256207	0.000000	0.000000	0.000000	0.000000	0.000000	1
41.777081	9.424132	0.000000	0.011225	-0.000956	0.000000	0.011265	-1.962159	0.000000	0.000000	0.000000	0.000000	0.000000	1
44.886073	9.424132	0.000000	0.004161	0.000379	0.000000	0.004178	4.929970	0.000000	0.000000	0.000000	0.000000	0.000000	1
47.995066	9.424132	0.000000	0.006698	0.006244	0.000000	0.009157	20.514158	0.000000	0.000000	0.000000	0.000000	0.000000	1
51.104058	9.424132	0.000000	-0.052641	0.022364	0.000000	0.057194	43.410977	0.000000	0.000000	0.000000	0.000000	0.000000	2
54.213050	9.424132	0.000000	-0.316801	0.112926	0.000000	0.336326	38.701743	0.000000	0.000000	0.000000	0.000000	0.000000	2
57.322042	9.424132	0.000000	-0.444089	0.173006	0.000000	0.476598	9.810914	0.000000	0.000000	0.000000	0.000000	0.000000	1
60.431034	9.424132	0.000000	-0.563672	0.235699	0.000000	0.610966	6.528559	0.000000	0.000000	0.000000	0.000000	0.000000	2
63.540026	9.424132	0.000000	-0.546744	0.337335	0.000000	0.642436	20.766461	0.000000	0.000000	0.000000	0.000000	0.000000	1
66.649018	9.424132	0.000000	-0.485583	0.385205	0.000000	0.619818	55.138054	0.000000	0.000000	0.000000	0.000000	0.000000	1
69.758010	9.424132	0.000000	-0.593015	0.576897	0.000000	0.827331	95.500968	0.000000	0.000000	0.000000	0.000000	0.000000	1
72.867002	9.424132	0.000000	-0.836050	0.963913	0.000000	1.275973	25.981326	0.000000	0.000000	0.000000	0.000000	0.000000	1
75.975994	9.424132	0.000000	-0.690507	0.771947	0.000000	1.035713	-84.274397	0.000000	0.000000	0.000000	0.000000	0.000000	1
79.084987	9.424132	0.000000	-0.334506	0.633125	0.000000	0.716059	-156.236412	0.000000	0.000000	0.000000	0.000000	0.000000	1
82.193979	9.424132	0.000000	-0.038322	0.172473	0.000000	0.176679	-122.656418	0.000000	0.000000	0.000000	0.000000	0.000000	2
85.302971	9.424132	0.000000	-0.004956	0.046191	0.000000	0.046456	-33.589850	0.000000	0.000000	0.000000	0.000000	0.000000	2
88.411963	9.424132	0.000000	-0.004032	-0.008574	0.000000	0.009475	-10.880667	0.000000	0.000000	0.000000	0.000000	0.000000	1
91.520955	9.424132	0.000000	-0.005886	-0.000545	0.000000	0.005911	2.458663	0.000000	0.000000	0.000000	0.000000	0.000000	1
94.629947	9.424132	0.000000	-0.007606	0.009081	0.000000	0.011846	2.796561	0.000000	0.000000	0.000000	0.000000	0.000000	1
97.738939	9.424132	0.000000	-0.002872	0.001744	0.000000	0.003360	2.874472	0.000000	0.000000	0.000000	0.000000	0.000000	1
100.847931	9.424132	0.000000	-0.002075	0.009978	0.000000	0.010192	1.277590	0.000000	0.000000	0.000000	0.000000	0.000000	1
103.956923	9.424132	0.000000	-0.005073	0.013138	0.000000	0.014083	-3.484724	0.000000	0.000000	0.000000	0.000000	0.000000	1
107.065915	9.424132	0.000000	-0.034866	0.008400	0.000000	0.035863	-6.835555	0.000000	0.000000	0.000000	0.000000	0.000000	1
110.174908	9.424132	0.000000	-0.020861	0.011232	0.000000	0.023693	-6.419656	0.000000	0.000000	0.000000	0.000000	0.000000	1
113.283900	9.424132	0.000000	-0.004054	0.008634	0.000000	0.009538	-2.556111	0.000000	0.000000	0.000000	0.000000	0.000000	1
116.392892	9.424132	0.000000	-0.001641	0.003880	0.000000	0.004212	-0.684761	0.000000	0.000000	0.000000	0.000000	0.000000	1
119.501884	9.424132	0.000000	-0.003984	0.001352	0.000000	0.004207	-0.728982	0.000000	0.000000	0.000000	0.000000	0.000000	1
122.610876	9.424132	0.000000	-0.004056	0.000857	0.000000	0.004146	0.671774	0.000000	0.000000	0.000000	0.000000	0.000000	1
125.719868	9.424132	0.000000	-0.000824	0.004964	0.000000	0.005032	1.919793	0.000000	0.000000	0.000000	0.000000	0.000000	1
128.828860	9.424132	0.000000	0.003268	0.010636	0.000000	0.011127	1.589209	0.000000	0.000000	0.000000	0.000000	0.000000	1
131.937852	9.424132	0.000000	-0.001893	0.001487	0.000000	0.002407	0.536095	0.000000	0.000000	0.000000	0.000000	0.000000	1
135.046844	9.424132	0.000000	-0.003309	0.003215	0.000000	0.004614	-0.540776	0.000000	0.000000	0.000000	0.000000	0.000000	1
138.155836	9.424132	0.000000	-0.005194	0.005202	0.000000	0.007351	-0.607818	0.000000	0.000000	0.000000	0.000000	0.000000	1
141.264829	9.424132	0.000000	-0.004530	0.004706	0.000000	0.006532	0.451086	0.000000	0.000000	0.000000	0.000000	0.000000	1
144.373821	9.424132	0.000000	-0.005840	0.006161	0.000000	0.008489	0.508341	0.000000	0.000000	0.000000	0.000000	0.000000	1
147.482813	9.424132	0.000000	-0.006408	0.007425	0.000000	0.009808	0.033501	0.000000	0.000000	0.000000	0.000000	0.000000	1
150.591805	9.424132	0.000000	-0.004719	0.006773	0.000000	0.008254	-0.412232	0.000000	0.000000	0.000000	0.000000	0.000000	1
153.700797	9.424132	0.000000	-0.009185	0.006593	0.000000	0.011306	-1.458982	0.000000	0.000000	0.000000	0.000000	0.000000	1
156.809789	9.424132	0.000000	-0.005920	0.001770	0.000000	0.006179	-1.431973	0.000000	0.000000	0.000000	0.000000	0.000000	1
159.918781	9.424132	0.000000	-0.003219	-0.000842	0.000000	0.003328	-0.713847	0.000000	0.000000	0.000000	0.000000	0.000000	1
4.469176	12.533124	0.000000	0.000651	0.003342	0.000000	0.003405	1.093567	0.000000	0.000000	0.000000	0.000000	0.000000	1
7.578168	12.533124	0.000000	0.000484	0.004825	0.000000	0.004850	0.602154	0.000000	0.000000	0.000000	0.000000	0.000000	1
10.687160	12.533124	0.000000	0.001373	0.005539	0.000000	0.005707	-0.288882	0.000000	0.000000	0.000000	0.000000	0.000000	1
13.796152	12.533124	0.000000	0.001535	0.004260	0.000000	0.004528	-0.262785	0.000000	0.000000	0.000000	0.000000	0.000000	1
16.905145	12.533124	0.000000	0.002392	0.005340	0.000000	0.005852	1.732606	0.000000	0.000000	0.000000	0.000000	0.000000	1
20.014137	12.533124	0.000000	0.003830	0.017921	0.000000	0.018325	1.696595	0.000000	0.000000	0.000000	0.000000	0.000000	1
23.123129	12.533124	0.000000	0.001650	0.017712	0.000000	0.017789	-1.716428	0.000000	0.000000	0.000000	0.000000	0.000000	1
26.232121	12.533124	0.000000	0.001860	0.004720	0.000000	0.005073	-2.199852	0.000000	0.000000	0.000000	0.000000	0.000000	1
29.341113	12.533124	0.000000	0.004144	0.006066	0.000000	0.007346	-0.801408	0.000000	0.000000	0.000000	0.000000	0.000000	1
32.450105	12.533124	0.000000	0.004815	0.003027	0.000000	0.005687	-0.245428	0.000000	0.000000	0.000000	0.000000	0.000000	1
35.559097	12.533124	0.000000	0.004860	0.002515	0.000000	0.005472	0.160531	0.000000	0.000000	0.000000	0.000000	0.000000	1
38.668089	12.533124	0.000000	0.011635	0.002378	0.000000	0.011875	4.476671	0.000000	0.000000	0.000000	0.000000	0.000000	1
41.777081	12.533124	0.000000	0.011326	0.002373	0.000000	0.011572	13.963113	0.000000	0.000000	0.000000	0.000000	0.000000	1
44.886073	12.533124	0.000000	0.003926	-0.022911	0.000000	0.023245	37.355604	0.000000	0.000000	0.000000	0.000000	0.000000	1
47.995066	12.533124	0.000000	-0.049177	0.056408	0.000000	0.074835	58.373528	0.000000	0.000000	0.000000	0.000000	0.000000	1
51.104058	12.533124	0.000000	-0.227064	0.098931	0.000000	0.247680	65.428595	0.000000	0.000000	0.000000	0.000000	0.000000	2
54.213050	12.533124	0.000000	-0.305286	0.292154	0.000000	0.422556	37.606201	0.000000	0.000000	0.000000	0.000000	0.000000	1
57.322042	12.533124	0.000000	-0.430162	0.298006	0.000000	0.523303	-8.837992	0.000000	0.000000	0.000000	0.000000	0.000000	1
60.431034	12.533124	0.000000	-0.517343	0.236085	0.000000	0.568665	0.089526	0.000000	0.000000	0.000000	0.000000	0.000000	1
63.540026	12.533124	0.000000	-0.451679	0.338316	0.000000	0.564333	26.577533	0.000000	0.000000	0.000000	0.000000	0.000000	1
66.649018	12.533124	0.000000	-0.536113	0.455457	0.000000	0.703462	43.943879	0.000000	0.000000	0.000000	0.000000	0.000000	1
69.758010	12.533124	0.000000	-0.568233	0.633635	0.000000	0.851106	16.473985	0.000000	0.000000	0.000000	0.000000	0.000000	1
72.867002	12.533124	0.000000	-0.567208	0.617133	0.000000	0.838199	-69.188472	0.000000	0.000000	0.000000	0.000000	0.000000	2
75.975994	12.533124	0.000000	-0.358670	0.626817	0.000000	0.722179	-130.564944	0.000000	0.000000	0.000000	0.000000	0.000000	1
79.084987	12.533124	0.000000	-0.112366	0.449781	0.000000	0.463605	-146.629058	0.000000	0.000000	0.000000	0.000000	0.000000	2
82.193979	12.533124	0.000000	-0.000879	0.020354	0.000000	0.020373	-81.046945	0.000000	0.000000	0.000000	0.000000	0.000000	1
85.302971	12.533124	0.000000	0.011743	0.006984	0.000000	0.013663	-12.552451	0.000000	0.000000	0.000000	0.000000	0.000000	1
88.411963	12.533124	0.000000	-0.000236	-0.005070	0.000000	0.005076	-5.074090	0.000000	0.000000	0.000000	0.000000	0.000000	1
91.520955	12.533124	0.000000	-0.005960	-0.002113	0.000000	0.006324	-1.745003	0.000000	0.000000	0.000000	0.000000	0.000000	1
94.629947	12.533124	0.000000	-0.007963	0.010584	0.000000	0.013245	-0.620246	0.000000	0.000000	0.000000	0.000000	0.000000	1
97.738939	12.533124	0.000000	-0.007886	0.023783	0.000000	0.025056	3.477131	0.000000	0.000000	0.000000	0.000000	0.000000	1
100.847931	12.533124	0.000000	0.002557	0.046420	0.000000	0.046491	2.678139	0.000000	0.000000	0.000000	0.000000	0.000000	1
103.956923	12.533124	0.000000	0.003954	0.044415	0.000000	0.044591	-6.145625	0.000000	0.000000	0.000000	0.000000	0.000000	1
107.065915	12.533124	0.000000	0.002409	0.023302	0.000000	0.023427	-13.733404	0.000000	0.000000	0.000000	0.000000	0.000000	1
110.174908	12.533124	0.000000	0.008795	-0.020524	0.000000	0.022329	-10.103705	0.000000	0.000000	0.000000	0.000000	0.000000	1
113.283900	12.533124	0.000000	0.010069	-0.020268	0.000000	0.022631	-0.576615	0.000000	0.000000	0.000000	0.000000	0.000000	1
116.392892	12.533124	0.000000	-0.001514	0.004381	0.000000	0.004635	1.334229	0.000000	0.000000	0.000000	0.000000	0.000000	1
119.501884	12.533124	0.000000	-0.004329	0.002085	0.000000	0.004805	0.291916	0.000000	0.000000	0.000000	0.000000	0.000000	1
122.610876	12.533124	0.000000	-0.005343	0.005800	0.000000	0.007886	0.261670	0.000000	0.000000	0.000000	0.000000	0.000000	1
125.719868	12.533124	0.000000	-0.006006	0.008689	0.000000	0.010562	-0.013171	0.000000	0.000000	0.000000	0.000000	0.000000	1
128.828860	12.533124	0.000000	-0.007608	0.005769	0.000000	0.009548	0.594241	0.000000	0.000000	0.000000	0.000000	0.000000	1
131.937852	12.533124	0.000000	-0.014533	0.013990	0.000000	0.020172	1.329778	0.000000	0.000000	0.000000	0.000000	0.000000	1
135.046844	12.533124	0.000000	-0.008442	0.008614	0.000000	0.012061	0.144270	0.000000	0.000000	0.000000	0.000000	0.000000	1
138.155836	12.533124	0.000000	-0.002824	0.003794	0.000000	0.004730	-0.753871	0.000000	0.000000	0.000000	0.000000	0.000000	1
141.264829	12.533124	0.000000	-0.003919	0.005243	0.000000	0.006546	1.128040	0.000000	0.000000	0.000000	0.000000	0.000000	1
144.373821	12.533124	0.000000	-0.006207	0.007421	0.000000	0.009675	1.700251	0.000000	0.000000	0.000000	0.000000	0.000000	1
147.482813	12.533124	0.000000	-0.006494	0.007867	0.000000	0.010202	0.981856	0.000000	0.000000	0.000000	0.000000	0.000000	1
150.591805	12.533124	0.000000	-0.006347	0.008685	0.000000	0.010756	-0.186614	0.000000	0.000000	0.000000	0.000000	0.000000	1
153.700797	12.533124	0.000000	-0.004745	0.007686	0.000000	0.009033	-1.659443	0.000000	0.000000	0.000000	0.000000	0.000000	1
156.809789	12.533124	0.000000	-0.002797	0.002859	0.000000	0.003999	-1.195428	0.000000	0.000000	0.000000	0.000000	0.000000	1
159.918781	12.533124	0.000000	-0.001721	0.002614	0.000000	0.003130	-0.414591	0.000000	0.000000	0.000000	0.000000	0.000000	1
4.469176	15.642117	0.000000	-0.002716	0.002968	0.000000	0.004023	0.988918	0.000000	0.000000	0.000000	0.000000	0.000000	1
7.578168	15.642117	0.000000	0.000332	0.006408	0.000000	0.006416	0.237062	0.000000	0.000000	0.000000	0.000000	0.000000	1
10.687160	15.642117	0.000000	0.002694	0.005239	0.000000	0.005891	-0.466203	0.000000	0.000000	0.000000	0.000000	0.000000	1
13.796152	15.642117	0.000000	0.002449	0.004005	0.000000	0.004695	-0.228942	0.000000	0.000000	0.000000	0.000000	0.000000	1
16.905145	15.642117	0.000000	0.000404	0.002857	0.000000	0.002885	0.417266	0.000000	0.000000	0.000000	0.000000	0.000000	1
20.014137	15.642117	0.000000	0.000841	0.001752	0.000000	0.001943	0.553908	0.000000	0.000000	0.000000	0.000000	0.000000	1
23.123129	15.642117	0.000000	0.002158	0.003347	0.000000	0.003982	0.153579	0.000000	0.000000	0.000000	0.000000	0.000000	1
26.232121	15.642117	0.000000	0.011685	0.010820	0.000000	0.015925	-0.700637	0.000000	0.000000	0.000000	0.000000	0.000000	1
29.341113	15.642117	0.000000	0.010000	0.008022	0.000000	0.012820	-0.171081	0.000000	0.000000	0.000000	0.000000	0.000000	1
32.450105	15.642117	0.000000	-0.000382	0.010098	0.000000	0.010105	1.935896	0.000000	0.000000	0.000000	0.000000	0.000000	1
35.559097	15.642117	0.000000	0.000059	0.013235	0.000000	0.013236	2.052714	0.000000	0.000000	0.000000	0.000000	0.000000	1
38.668089	15.642117	0.000000	-0.016569	-0.006477	0.000000	0.017790	9.468123	0.000000	0.000000	0.000000	0.000000	0.000000	2
41.777081	15.642117	0.000000	-0.071855	-0.004445	0.000000	0.071992	33.438153	0.000000	0.000000	0.000000	0.000000	0.000000	1
44.886073	15.642117	0.000000	-0.136515	0.058037	0.000000	0.148339	63.360128	0.000000	0.000000	0.000000	0.000000	0.000000	2
47.995066	15.642117	0.000000	-0.287960	0.150305	0.000000	0.324827	83.234119	0.000000	0.000000	0.000000	0.000000	0.000000	1
51.104058	15.642117	0.000000	-0.311998	0.254887	0.000000	0.402877	75.678532	0.000000	0.000000	0.000000	0.000000	0.000000	1
54.213050	15.642117	0.000000	-0.327255	0.375646	0.000000	0.498202	26.278102	0.000000	0.000000	0.000000	0.000000	0.000000	1
57.322042	15.642117	0.000000	-0.427341	0.377920	0.000000	0.570477	-37.264654	0.000000	0.000000	0.000000	0.000000	0.000000	1
60.431034	15.642117	0.000000	-0.494047	0.237860	0.000000	0.548325	-31.871830	0.000000	0.000000	0.000000	0.000000	0.000000	1
63.540026	15.642117	0.000000	-0.465259	0.372680	0.000000	0.596118	5.236152	0.000000	0.000000	0.000000	0.000000	0.000000	1
66.649018	15.642117	0.000000	-0.574896	0.453926	0.000000	0.732499	8.578737	0.000000	0.000000	0.000000	0.000000	0.000000	1
69.758010	15.642117	0.000000	-0.540376	0.590948	0.000000	0.800766	-11.633355	0.000000	0.000000	0.000000	0.000000	0.000000	1
72.867002	15.642117	0.000000	-0.249409	0.564211	0.000000	0.616878	-61.270724	0.000000	0.000000	0.000000	0.000000	0.000000	2
75.975994	15.642117	0.000000	-0.055052	0.550054	0.000000	0.552802	-107.911572	0.000000	0.000000	0.000000	0.000000	0.000000	2
79.084987	15.642117	0.000000	-0.017670	0.156678	0.000000	0.157672	-93.516596	0.000000	0.000000	0.000000	0.000000	0.000000	2
82.193979	15.642117	0.000000	-0.000864	0.022081	0.000000	0.022097	-30.665037	0.000000	0.000000	0.000000	0.000000	0.000000	1
85.302971	15.642117	0.000000	0.007461	0.017575	0.000000	0.019093	1.785913	0.000000	0.000000	0.000000	0.000000	0.000000	1
88.411963	15.642117	0.000000	0.010483	0.018577	0.000000	0.021330	1.732789	0.000000	0.000000	0.000000	0.000000	0.000000	1
91.520955	15.642117	0.000000	0.028180	0.031814	0.000000	0.042499	-1.724583	0.000000	0.000000	0.000000	0.000000	0.000000	1
94.629947	15.642117	0.000000	0.015004	0.031467	0.000000	0.034861	-2.893251	0.000000	0.000000	0.000000	0.000000	0.000000	1
97.738939	15.642117	0.000000	-0.007620	0.036845	0.000000	0.037624	1.259720	0.000000	0.000000	0.000000	0.000000	0.000000	1
100.847931	15.642117	0.000000	-0.000151	0.060419	0.000000	0.060419	1.965765	0.000000	0.000000	0.000000	0.000000	0.000000	1
103.956923	15.642117	0.000000	0.001190	0.056160	0.000000	0.056172	-4.583389	0.000000	0.000000	0.000000	0.000000	0.000000	1
107.065915	15.642117	0.000000	0.016387	0.021081	0.000000	0.026701	-10.508923	0.000000	0.000000	0.000000	0.000000	0.000000	1
110.174908	15.642117	0.000000	0.017314	-0.006690	0.000000	0.018562	-5.167429	0.000000	0.000000	0.000000	0.000000	0.000000	1
113.283900	15.642117	0.000000	0.013655	0.002000	0.000000	0.013801	0.319718	0.000000	0.000000	0.000000	0.000000	0.000000	2
116.392892	15.642117	0.000000	-0.003436	0.008309	0.000000	0.008991	-1.739577	0.000000	0.000000	0.000000	0.000000	0.000000	1
119.501884	15.642117	0.000000	-0.010027	0.005837	0.000000	0.011603	-1.510690	0.000000	0.000000	0.000000	0.000000	0.000000	1