TITLE = "PIV Result  2493 "
VARIABLES = "X (mm)""Y (mm)""Z (mm)""U (m/s)""V (m/s)""W (m/s)""Speed (m/s)""Vorticity""U-std""V-std""W-std""Speed-std""Vorticity-std""Flag"
ZONE T="ZONE 2493 "
I= 51 , J= 16 , K= 1 , F=POINT
DT=(DOUBLE DOUBLE DOUBLE DOUBLE DOUBLE DOUBLE DOUBLE DOUBLE DOUBLE DOUBLE DOUBLE DOUBLE DOUBLE DOUBLE)
4.469176	3.206148	0.000000	0.005051	0.007676	0.000000	0.009189	-0.425315	0.000000	0.000000	0.000000	0.000000	0.000000	1
7.578168	3.206148	0.000000	0.001190	0.007874	0.000000	0.007963	-0.539740	0.000000	0.000000	0.000000	0.000000	0.000000	1
10.687160	3.206148	0.000000	-0.003453	0.007208	0.000000	0.007993	-0.637672	0.000000	0.000000	0.000000	0.000000	0.000000	1
13.796152	3.206148	0.000000	-0.002847	0.006215	0.000000	0.006836	0.916941	0.000000	0.000000	0.000000	0.000000	0.000000	1
16.905145	3.206148	0.000000	0.019818	0.011265	0.000000	0.022796	1.853159	0.000000	0.000000	0.000000	0.000000	0.000000	1
20.014137	3.206148	0.000000	0.010683	0.008975	0.000000	0.013952	0.649139	0.000000	0.000000	0.000000	0.000000	0.000000	1
23.123129	3.206148	0.000000	0.010490	0.008261	0.000000	0.013353	0.754671	0.000000	0.000000	0.000000	0.000000	0.000000	1
26.232121	3.206148	0.000000	0.006151	0.009217	0.000000	0.011081	1.177858	0.000000	0.000000	0.000000	0.000000	0.000000	1
29.341113	3.206148	0.000000	0.000574	0.003025	0.000000	0.003079	1.904182	0.000000	0.000000	0.000000	0.000000	0.000000	1
32.450105	3.206148	0.000000	0.005658	0.010591	0.000000	0.012007	1.576958	0.000000	0.000000	0.000000	0.000000	0.000000	1
35.559097	3.206148	0.000000	0.003513	0.002067	0.000000	0.004076	-0.048674	0.000000	0.000000	0.000000	0.000000	0.000000	1
38.668089	3.206148	0.000000	0.000617	0.000931	0.000000	0.001116	0.125381	0.000000	0.000000	0.000000	0.000000	0.000000	1
41.777081	3.206148	0.000000	-0.002710	0.000693	0.000000	0.002797	-0.612782	0.000000	0.000000	0.000000	0.000000	0.000000	1
44.886073	3.206148	0.000000	-0.003798	0.000986	0.000000	0.003924	-1.480100	0.000000	0.000000	0.000000	0.000000	0.000000	1
47.995066	3.206148	0.000000	-0.000385	0.001087	0.000000	0.001153	-0.565584	0.000000	0.000000	0.000000	0.000000	0.000000	1
51.104058	3.206148	0.000000	-0.001387	0.000110	0.000000	0.001391	-0.442899	0.000000	0.000000	0.000000	0.000000	0.000000	1
54.213050	3.206148	0.000000	0.000936	-0.002651	0.000000	0.002812	-0.592119	0.000000	0.000000	0.000000	0.000000	0.000000	1
57.322042	3.206148	0.000000	0.009977	-0.002731	0.000000	0.010344	0.230033	0.000000	0.000000	0.000000	0.000000	0.000000	1
60.431034	3.206148	0.000000	0.014783	-0.000544	0.000000	0.014793	-0.217045	0.000000	0.000000	0.000000	0.000000	0.000000	1
63.540026	3.206148	0.000000	-0.003389	-0.001225	0.000000	0.003603	-0.080031	0.000000	0.000000	0.000000	0.000000	0.000000	1
66.649018	3.206148	0.000000	-0.001065	-0.000168	0.000000	0.001079	-0.141667	0.000000	0.000000	0.000000	0.000000	0.000000	1
69.758010	3.206148	0.000000	-0.005125	0.001401	0.000000	0.005313	-3.664101	0.000000	0.000000	0.000000	0.000000	0.000000	1
72.867002	3.206148	0.000000	0.007873	-0.009535	0.000000	0.012365	-2.515676	0.000000	0.000000	0.000000	0.000000	0.000000	1
75.975994	3.206148	0.000000	0.051830	-0.021921	0.000000	0.056275	1.336074	0.000000	0.000000	0.000000	0.000000	0.000000	1
79.084987	3.206148	0.000000	0.038906	-0.024915	0.000000	0.046200	152.377806	0.000000	0.000000	0.000000	0.000000	0.000000	1
82.193979	3.206148	0.000000	0.384094	0.789190	0.000000	0.877696	236.311854	0.000000	0.000000	0.000000	0.000000	0.000000	1
85.302971	3.206148	0.000000	0.374744	1.084084	0.000000	1.147027	80.953253	0.000000	0.000000	0.000000	0.000000	0.000000	2
88.411963	3.206148	0.000000	0.308162	1.036513	0.000000	1.081352	-92.019783	0.000000	0.000000	0.000000	0.000000	0.000000	2
91.520955	3.206148	0.000000	0.262210	0.326898	0.000000	0.419066	-123.490791	0.000000	0.000000	0.000000	0.000000	0.000000	1
94.629947	3.206148	0.000000	0.062263	0.068050	0.000000	0.092236	-48.590432	0.000000	0.000000	0.000000	0.000000	0.000000	2
97.738939	3.206148	0.000000	0.067093	0.064622	0.000000	0.093153	-24.627095	0.000000	0.000000	0.000000	0.000000	0.000000	2
100.847931	3.206148	0.000000	0.090017	0.050925	0.000000	0.103423	-31.687696	0.000000	0.000000	0.000000	0.000000	0.000000	2
103.956923	3.206148	0.000000	0.088612	-0.004787	0.000000	0.088741	-28.537047	0.000000	0.000000	0.000000	0.000000	0.000000	2
107.065915	3.206148	0.000000	0.063120	-0.004196	0.000000	0.063260	-11.735280	0.000000	0.000000	0.000000	0.000000	0.000000	2
110.174908	3.206148	0.000000	0.011351	-0.000181	0.000000	0.011352	-8.493193	0.000000	0.000000	0.000000	0.000000	0.000000	1
113.283900	3.206148	0.000000	0.000215	0.001078	0.000000	0.001099	-4.862680	0.000000	0.000000	0.000000	0.000000	0.000000	1
116.392892	3.206148	0.000000	0.005728	-0.000387	0.000000	0.005741	4.089547	0.000000	0.000000	0.000000	0.000000	0.000000	1
119.501884	3.206148	0.000000	-0.000111	-0.001458	0.000000	0.001462	4.131270	0.000000	0.000000	0.000000	0.000000	0.000000	1
122.610876	3.206148	0.000000	-0.001653	-0.001068	0.000000	0.001968	0.461868	0.000000	0.000000	0.000000	0.000000	0.000000	1
125.719868	3.206148	0.000000	-0.001972	0.000558	0.000000	0.002049	0.909978	0.000000	0.000000	0.000000	0.000000	0.000000	1
128.828860	3.206148	0.000000	0.000304	0.001068	0.000000	0.001110	0.810807	0.000000	0.000000	0.000000	0.000000	0.000000	1
131.937852	3.206148	0.000000	0.000466	0.000164	0.000000	0.000494	1.710435	0.000000	0.000000	0.000000	0.000000	0.000000	1
135.046844	3.206148	0.000000	-0.002762	0.006603	0.000000	0.007157	2.537219	0.000000	0.000000	0.000000	0.000000	0.000000	1
138.155836	3.206148	0.000000	-0.004249	0.014276	0.000000	0.014895	0.257266	0.000000	0.000000	0.000000	0.000000	0.000000	1
141.264829	3.206148	0.000000	-0.008792	0.011793	0.000000	0.014709	-1.449881	0.000000	0.000000	0.000000	0.000000	0.000000	1
144.373821	3.206148	0.000000	-0.005959	0.008418	0.000000	0.010314	-1.535389	0.000000	0.000000	0.000000	0.000000	0.000000	1
147.482813	3.206148	0.000000	-0.009700	0.005652	0.000000	0.011226	-1.249167	0.000000	0.000000	0.000000	0.000000	0.000000	1
150.591805	3.206148	0.000000	-0.008498	0.006664	0.000000	0.010800	-0.182770	0.000000	0.000000	0.000000	0.000000	0.000000	1
153.700797	3.206148	0.000000	-0.003772	0.005768	0.000000	0.006892	0.748308	0.000000	0.000000	0.000000	0.000000	0.000000	1
156.809789	3.206148	0.000000	-0.002689	0.003549	0.000000	0.004453	1.319586	0.000000	0.000000	0.000000	0.000000	0.000000	1
159.918781	3.206148	0.000000	-0.002634	0.003371	0.000000	0.004278	1.464203	0.000000	0.000000	0.000000	0.000000	0.000000	1
4.469176	6.315140	0.000000	0.004998	0.007339	0.000000	0.008879	0.211377	0.000000	0.000000	0.000000	0.000000	0.000000	1
7.578168	6.315140	0.000000	0.003981	0.007235	0.000000	0.008258	-0.111325	0.000000	0.000000	0.000000	0.000000	0.000000	1
10.687160	6.315140	0.000000	-0.003150	0.006926	0.000000	0.007609	-0.904188	0.000000	0.000000	0.000000	0.000000	0.000000	1
13.796152	6.315140	0.000000	-0.000524	0.006682	0.000000	0.006702	0.306187	0.000000	0.000000	0.000000	0.000000	0.000000	1
16.905145	6.315140	0.000000	0.010036	0.009438	0.000000	0.013777	1.837956	0.000000	0.000000	0.000000	0.000000	0.000000	1
20.014137	6.315140	0.000000	0.010223	0.009268	0.000000	0.013799	0.658386	0.000000	0.000000	0.000000	0.000000	0.000000	1
23.123129	6.315140	0.000000	0.008250	0.007574	0.000000	0.011200	-0.544688	0.000000	0.000000	0.000000	0.000000	0.000000	1
26.232121	6.315140	0.000000	0.001059	0.008380	0.000000	0.008446	-0.378262	0.000000	0.000000	0.000000	0.000000	0.000000	1
29.341113	6.315140	0.000000	-0.000560	0.013902	0.000000	0.013913	0.700089	0.000000	0.000000	0.000000	0.000000	0.000000	1
32.450105	6.315140	0.000000	-0.000851	0.016819	0.000000	0.016840	0.968137	0.000000	0.000000	0.000000	0.000000	0.000000	1
35.559097	6.315140	0.000000	-0.000523	0.016283	0.000000	0.016291	-0.121752	0.000000	0.000000	0.000000	0.000000	0.000000	1
38.668089	6.315140	0.000000	-0.003096	0.007580	0.000000	0.008188	-0.053460	0.000000	0.000000	0.000000	0.000000	0.000000	1
41.777081	6.315140	0.000000	-0.003337	0.007128	0.000000	0.007871	-0.306515	0.000000	0.000000	0.000000	0.000000	0.000000	1
44.886073	6.315140	0.000000	0.001727	0.000463	0.000000	0.001788	-1.584381	0.000000	0.000000	0.000000	0.000000	0.000000	1
47.995066	6.315140	0.000000	-0.001830	-0.002694	0.000000	0.003256	-0.465679	0.000000	0.000000	0.000000	0.000000	0.000000	1
51.104058	6.315140	0.000000	0.000410	-0.001262	0.000000	0.001327	1.677452	0.000000	0.000000	0.000000	0.000000	0.000000	1
54.213050	6.315140	0.000000	0.005531	0.002280	0.000000	0.005982	1.838898	0.000000	0.000000	0.000000	0.000000	0.000000	1
57.322042	6.315140	0.000000	0.010097	0.005321	0.000000	0.011413	2.112111	0.000000	0.000000	0.000000	0.000000	0.000000	2
60.431034	6.315140	0.000000	0.011619	0.004704	0.000000	0.012535	-2.071670	0.000000	0.000000	0.000000	0.000000	0.000000	2
63.540026	6.315140	0.000000	-0.007544	-0.009248	0.000000	0.011935	-6.649478	0.000000	0.000000	0.000000	0.000000	0.000000	1
66.649018	6.315140	0.000000	-0.009280	-0.016357	0.000000	0.018806	-4.812731	0.000000	0.000000	0.000000	0.000000	0.000000	1
69.758010	6.315140	0.000000	0.006117	-0.022978	0.000000	0.023779	-3.100807	0.000000	0.000000	0.000000	0.000000	0.000000	1
72.867002	6.315140	0.000000	0.015965	-0.030196	0.000000	0.034156	0.418327	0.000000	0.000000	0.000000	0.000000	0.000000	1
75.975994	6.315140	0.000000	0.021998	-0.033349	0.000000	0.039951	5.214612	0.000000	0.000000	0.000000	0.000000	0.000000	2
79.084987	6.315140	0.000000	0.045466	-0.043214	0.000000	0.062726	140.110236	0.000000	0.000000	0.000000	0.000000	0.000000	1
82.193979	6.315140	0.000000	0.146162	0.795865	0.000000	0.809175	231.019218	0.000000	0.000000	0.000000	0.000000	0.000000	2
85.302971	6.315140	0.000000	0.236714	1.179226	0.000000	1.202750	105.492772	0.000000	0.000000	0.000000	0.000000	0.000000	2
88.411963	6.315140	0.000000	0.255818	0.988941	0.000000	1.021493	-70.230301	0.000000	0.000000	0.000000	0.000000	0.000000	1
91.520955	6.315140	0.000000	0.146824	0.433952	0.000000	0.458117	-122.909804	0.000000	0.000000	0.000000	0.000000	0.000000	2
94.629947	6.315140	0.000000	0.102831	0.179127	0.000000	0.206545	-58.681137	0.000000	0.000000	0.000000	0.000000	0.000000	2
97.738939	6.315140	0.000000	0.112940	0.103556	0.000000	0.153230	-28.684728	0.000000	0.000000	0.000000	0.000000	0.000000	2
100.847931	6.315140	0.000000	0.168226	0.100462	0.000000	0.195940	-26.688670	0.000000	0.000000	0.000000	0.000000	0.000000	1
103.956923	6.315140	0.000000	0.148104	0.040656	0.000000	0.153583	-25.117632	0.000000	0.000000	0.000000	0.000000	0.000000	2
107.065915	6.315140	0.000000	0.087208	0.021978	0.000000	0.089935	-22.401824	0.000000	0.000000	0.000000	0.000000	0.000000	2
110.174908	6.315140	0.000000	0.039033	0.025460	0.000000	0.046602	-21.545156	0.000000	0.000000	0.000000	0.000000	0.000000	1
113.283900	6.315140	0.000000	-0.009030	-0.018711	0.000000	0.020776	-11.063807	0.000000	0.000000	0.000000	0.000000	0.000000	2
116.392892	6.315140	0.000000	-0.004036	-0.035379	0.000000	0.035609	2.718150	0.000000	0.000000	0.000000	0.000000	0.000000	2
119.501884	6.315140	0.000000	-0.002968	0.003053	0.000000	0.004258	4.625390	0.000000	0.000000	0.000000	0.000000	0.000000	1
122.610876	6.315140	0.000000	-0.003945	-0.001092	0.000000	0.004094	0.054072	0.000000	0.000000	0.000000	0.000000	0.000000	1
125.719868	6.315140	0.000000	-0.004469	-0.003159	0.000000	0.005473	0.452114	0.000000	0.000000	0.000000	0.000000	0.000000	1
128.828860	6.315140	0.000000	-0.000559	-0.000062	0.000000	0.000562	0.710475	0.000000	0.000000	0.000000	0.000000	0.000000	1
131.937852	6.315140	0.000000	-0.001623	0.001004	0.000000	0.001909	1.781101	0.000000	0.000000	0.000000	0.000000	0.000000	1
135.046844	6.315140	0.000000	-0.005264	0.008129	0.000000	0.009684	1.832978	0.000000	0.000000	0.000000	0.000000	0.000000	1
138.155836	6.315140	0.000000	-0.005158	0.010442	0.000000	0.011646	-0.036817	0.000000	0.000000	0.000000	0.000000	0.000000	1
141.264829	6.315140	0.000000	-0.005393	0.005216	0.000000	0.007503	-0.710120	0.000000	0.000000	0.000000	0.000000	0.000000	1
144.373821	6.315140	0.000000	-0.005184	0.004932	0.000000	0.007155	-0.899743	0.000000	0.000000	0.000000	0.000000	0.000000	1
147.482813	6.315140	0.000000	-0.006156	0.000755	0.000000	0.006202	-0.236298	0.000000	0.000000	0.000000	0.000000	0.000000	1
150.591805	6.315140	0.000000	-0.004777	0.002734	0.000000	0.005504	0.873694	0.000000	0.000000	0.000000	0.000000	0.000000	1
153.700797	6.315140	0.000000	-0.007653	0.005472	0.000000	0.009408	0.341424	0.000000	0.000000	0.000000	0.000000	0.000000	1
156.809789	6.315140	0.000000	-0.010050	0.003754	0.000000	0.010729	-0.066995	0.000000	0.000000	0.000000	0.000000	0.000000	1
159.918781	6.315140	0.000000	-0.004309	0.004002	0.000000	0.005880	0.022588	0.000000	0.000000	0.000000	0.000000	0.000000	1
4.469176	9.424132	0.000000	0.002178	0.002714	0.000000	0.003479	0.666019	0.000000	0.000000	0.000000	0.000000	0.000000	1
7.578168	9.424132	0.000000	0.001116	0.002405	0.000000	0.002651	1.088860	0.000000	0.000000	0.000000	0.000000	0.000000	1
10.687160	9.424132	0.000000	0.005256	0.006925	0.000000	0.008694	0.192848	0.000000	0.000000	0.000000	0.000000	0.000000	1
13.796152	9.424132	0.000000	0.001190	0.004061	0.000000	0.004232	-0.114914	0.000000	0.000000	0.000000	0.000000	0.000000	1
16.905145	9.424132	0.000000	0.002731	0.005155	0.000000	0.005834	1.267272	0.000000	0.000000	0.000000	0.000000	0.000000	1
20.014137	9.424132	0.000000	0.006512	0.007536	0.000000	0.009960	1.112361	0.000000	0.000000	0.000000	0.000000	0.000000	1
23.123129	9.424132	0.000000	0.016134	0.008478	0.000000	0.018226	-0.287427	0.000000	0.000000	0.000000	0.000000	0.000000	1
26.232121	9.424132	0.000000	0.011941	0.008429	0.000000	0.014617	-1.152641	0.000000	0.000000	0.000000	0.000000	0.000000	1
29.341113	9.424132	0.000000	0.006116	0.014418	0.000000	0.015662	-1.661198	0.000000	0.000000	0.000000	0.000000	0.000000	1
32.450105	9.424132	0.000000	-0.003467	0.015339	0.000000	0.015726	-2.216285	0.000000	0.000000	0.000000	0.000000	0.000000	1
35.559097	9.424132	0.000000	-0.004550	0.013920	0.000000	0.014645	-2.511643	0.000000	0.000000	0.000000	0.000000	0.000000	1
38.668089	9.424132	0.000000	-0.006187	0.008393	0.000000	0.010427	-1.978207	0.000000	0.000000	0.000000	0.000000	0.000000	1
41.777081	9.424132	0.000000	-0.004229	0.009085	0.000000	0.010021	-0.731222	0.000000	0.000000	0.000000	0.000000	0.000000	1
44.886073	9.424132	0.000000	0.003911	0.012816	0.000000	0.013400	-1.237630	0.000000	0.000000	0.000000	0.000000	0.000000	1
47.995066	9.424132	0.000000	0.001347	0.004559	0.000000	0.004754	1.128559	0.000000	0.000000	0.000000	0.000000	0.000000	1
51.104058	9.424132	0.000000	-0.010111	0.008009	0.000000	0.012898	7.151310	0.000000	0.000000	0.000000	0.000000	0.000000	1
54.213050	9.424132	0.000000	-0.002580	0.020840	0.000000	0.020999	6.929384	0.000000	0.000000	0.000000	0.000000	0.000000	2
57.322042	9.424132	0.000000	0.001961	0.019649	0.000000	0.019746	4.791164	0.000000	0.000000	0.000000	0.000000	0.000000	1
60.431034	9.424132	0.000000	0.018152	0.050239	0.000000	0.053418	-3.224983	0.000000	0.000000	0.000000	0.000000	0.000000	2
63.540026	9.424132	0.000000	0.018476	0.016341	0.000000	0.024665	-13.124924	0.000000	0.000000	0.000000	0.000000	0.000000	2
66.649018	9.424132	0.000000	0.000712	-0.024526	0.000000	0.024536	-7.420831	0.000000	0.000000	0.000000	0.000000	0.000000	1
69.758010	9.424132	0.000000	0.010871	-0.037110	0.000000	0.038670	3.373550	0.000000	0.000000	0.000000	0.000000	0.000000	1
72.867002	9.424132	0.000000	0.011123	-0.027584	0.000000	0.029742	7.351924	0.000000	0.000000	0.000000	0.000000	0.000000	1
75.975994	9.424132	0.000000	-0.013299	-0.025276	0.000000	0.028562	10.116389	0.000000	0.000000	0.000000	0.000000	0.000000	1
79.084987	9.424132	0.000000	0.008615	-0.013770	0.000000	0.016243	98.239693	0.000000	0.000000	0.000000	0.000000	0.000000	2
82.193979	9.424132	0.000000	0.017146	0.497347	0.000000	0.497642	186.164539	0.000000	0.000000	0.000000	0.000000	0.000000	1
85.302971	9.424132	0.000000	0.006278	1.045607	0.000000	1.045626	112.882104	0.000000	0.000000	0.000000	0.000000	0.000000	2
88.411963	9.424132	0.000000	0.089356	1.165002	0.000000	1.168424	-45.350204	0.000000	0.000000	0.000000	0.000000	0.000000	2
91.520955	9.424132	0.000000	0.114967	0.593254	0.000000	0.604291	-119.177062	0.000000	0.000000	0.000000	0.000000	0.000000	1
94.629947	9.424132	0.000000	0.147633	0.268160	0.000000	0.306113	-84.360135	0.000000	0.000000	0.000000	0.000000	0.000000	2
97.738939	9.424132	0.000000	0.181108	0.194316	0.000000	0.265629	-53.460974	0.000000	0.000000	0.000000	0.000000	0.000000	1
100.847931	9.424132	0.000000	0.189606	0.142157	0.000000	0.236979	-41.460768	0.000000	0.000000	0.000000	0.000000	0.000000	1
103.956923	9.424132	0.000000	0.223274	0.173581	0.000000	0.282810	-31.946848	0.000000	0.000000	0.000000	0.000000	0.000000	2
107.065915	9.424132	0.000000	0.186071	0.221384	0.000000	0.289194	-42.834938	0.000000	0.000000	0.000000	0.000000	0.000000	1
110.174908	9.424132	0.000000	0.052246	0.063648	0.000000	0.082345	-50.126843	0.000000	0.000000	0.000000	0.000000	0.000000	2
113.283900	9.424132	0.000000	0.007939	-0.025918	0.000000	0.027106	-27.083969	0.000000	0.000000	0.000000	0.000000	0.000000	2
116.392892	9.424132	0.000000	-0.000891	-0.039923	0.000000	0.039933	-0.046162	0.000000	0.000000	0.000000	0.000000	0.000000	2
119.501884	9.424132	0.000000	0.002926	-0.001778	0.000000	0.003424	4.900896	0.000000	0.000000	0.000000	0.000000	0.000000	1
122.610876	9.424132	0.000000	-0.006920	0.001417	0.000000	0.007063	-0.065415	0.000000	0.000000	0.000000	0.000000	0.000000	1
125.719868	9.424132	0.000000	-0.004387	0.000063	0.000000	0.004388	-0.100299	0.000000	0.000000	0.000000	0.000000	0.000000	1
128.828860	9.424132	0.000000	0.001350	-0.000586	0.000000	0.001472	0.943828	0.000000	0.000000	0.000000	0.000000	0.000000	1
131.937852	9.424132	0.000000	-0.004070	0.004941	0.000000	0.006401	1.854090	0.000000	0.000000	0.000000	0.000000	0.000000	1
135.046844	9.424132	0.000000	-0.007594	0.008938	0.000000	0.011729	0.528257	0.000000	0.000000	0.000000	0.000000	0.000000	1
138.155836	9.424132	0.000000	-0.003643	0.003950	0.000000	0.005373	-0.502519	0.000000	0.000000	0.000000	0.000000	0.000000	1
141.264829	9.424132	0.000000	-0.006676	0.007154	0.000000	0.009785	-0.225204	0.000000	0.000000	0.000000	0.000000	0.000000	1
144.373821	9.424132	0.000000	-0.006740	0.007222	0.000000	0.009879	-0.909614	0.000000	0.000000	0.000000	0.000000	0.000000	1
147.482813	9.424132	0.000000	-0.005412	0.004680	0.000000	0.007155	-0.247356	0.000000	0.000000	0.000000	0.000000	0.000000	1
150.591805	9.424132	0.000000	-0.010801	0.012985	0.000000	0.016890	0.770997	0.000000	0.000000	0.000000	0.000000	0.000000	1
153.700797	9.424132	0.000000	-0.011181	0.009134	0.000000	0.014438	-0.795683	0.000000	0.000000	0.000000	0.000000	0.000000	1
156.809789	9.424132	0.000000	-0.004748	0.003372	0.000000	0.005824	-1.686233	0.000000	0.000000	0.000000	0.000000	0.000000	1
159.918781	9.424132	0.000000	-0.001231	0.002681	0.000000	0.002950	-1.314300	0.000000	0.000000	0.000000	0.000000	0.000000	1
4.469176	12.533124	0.000000	0.001228	0.001696	0.000000	0.002094	0.281960	0.000000	0.000000	0.000000	0.000000	0.000000	1
7.578168	12.533124	0.000000	-0.000865	0.002083	0.000000	0.002255	1.569254	0.000000	0.000000	0.000000	0.000000	0.000000	1
10.687160	12.533124	0.000000	-0.000978	0.009477	0.000000	0.009527	1.718383	0.000000	0.000000	0.000000	0.000000	0.000000	1
13.796152	12.533124	0.000000	0.001026	0.005169	0.000000	0.005269	0.787873	0.000000	0.000000	0.000000	0.000000	0.000000	1
16.905145	12.533124	0.000000	0.001120	0.004003	0.000000	0.004157	0.569586	0.000000	0.000000	0.000000	0.000000	0.000000	1
20.014137	12.533124	0.000000	0.002537	0.003183	0.000000	0.004071	0.543788	0.000000	0.000000	0.000000	0.000000	0.000000	1
23.123129	12.533124	0.000000	0.012540	0.006888	0.000000	0.014307	1.394405	0.000000	0.000000	0.000000	0.000000	0.000000	1
26.232121	12.533124	0.000000	0.016250	0.011220	0.000000	0.019747	0.714149	0.000000	0.000000	0.000000	0.000000	0.000000	1
29.341113	12.533124	0.000000	0.017823	0.013066	0.000000	0.022099	-1.424296	0.000000	0.000000	0.000000	0.000000	0.000000	1
32.450105	12.533124	0.000000	0.013177	0.013627	0.000000	0.018956	-2.109820	0.000000	0.000000	0.000000	0.000000	0.000000	1
35.559097	12.533124	0.000000	0.007849	0.011367	0.000000	0.013814	-0.828035	0.000000	0.000000	0.000000	0.000000	0.000000	1
38.668089	12.533124	0.000000	0.001934	0.010091	0.000000	0.010275	-0.609979	0.000000	0.000000	0.000000	0.000000	0.000000	1
41.777081	12.533124	0.000000	0.003823	0.006583	0.000000	0.007613	-1.483748	0.000000	0.000000	0.000000	0.000000	0.000000	1
44.886073	12.533124	0.000000	0.001391	0.009189	0.000000	0.009294	-1.303732	0.000000	0.000000	0.000000	0.000000	0.000000	1
47.995066	12.533124	0.000000	0.001333	0.004325	0.000000	0.004526	5.048601	0.000000	0.000000	0.000000	0.000000	0.000000	1
51.104058	12.533124	0.000000	-0.031936	0.022242	0.000000	0.038918	9.435866	0.000000	0.000000	0.000000	0.000000	0.000000	1
54.213050	12.533124	0.000000	-0.046907	0.030690	0.000000	0.056055	5.154012	0.000000	0.000000	0.000000	0.000000	0.000000	1
57.322042	12.533124	0.000000	0.005663	0.023071	0.000000	0.023756	7.438946	0.000000	0.000000	0.000000	0.000000	0.000000	1
60.431034	12.533124	0.000000	0.033026	0.048736	0.000000	0.058873	4.517914	0.000000	0.000000	0.000000	0.000000	0.000000	2
63.540026	12.533124	0.000000	0.028470	0.038439	0.000000	0.047834	-7.740145	0.000000	0.000000	0.000000	0.000000	0.000000	2
66.649018	12.533124	0.000000	-0.001518	-0.005920	0.000000	0.006111	-4.588494	0.000000	0.000000	0.000000	0.000000	0.000000	1
69.758010	12.533124	0.000000	-0.025165	-0.005243	0.000000	0.025705	4.818714	0.000000	0.000000	0.000000	0.000000	0.000000	2
72.867002	12.533124	0.000000	-0.035048	-0.007871	0.000000	0.035921	4.189012	0.000000	0.000000	0.000000	0.000000	0.000000	2
75.975994	12.533124	0.000000	-0.033866	-0.024855	0.000000	0.042008	7.598567	0.000000	0.000000	0.000000	0.000000	0.000000	1
79.084987	12.533124	0.000000	-0.035314	-0.014388	0.000000	0.038133	47.198423	0.000000	0.000000	0.000000	0.000000	0.000000	1
82.193979	12.533124	0.000000	-0.010847	0.169669	0.000000	0.170016	104.705473	0.000000	0.000000	0.000000	0.000000	0.000000	2
85.302971	12.533124	0.000000	-0.006189	0.637000	0.000000	0.637031	76.443661	0.000000	0.000000	0.000000	0.000000	0.000000	2
88.411963	12.533124	0.000000	0.070200	0.620452	0.000000	0.624410	-15.317648	0.000000	0.000000	0.000000	0.000000	0.000000	2
91.520955	12.533124	0.000000	0.233033	0.631100	0.000000	0.672750	-78.101966	0.000000	0.000000	0.000000	0.000000	0.000000	1
94.629947	12.533124	0.000000	0.307796	0.451544	0.000000	0.546471	-71.879941	0.000000	0.000000	0.000000	0.000000	0.000000	2
97.738939	12.533124	0.000000	0.362674	0.407040	0.000000	0.545173	-45.746571	0.000000	0.000000	0.000000	0.000000	0.000000	1
100.847931	12.533124	0.000000	0.294146	0.282886	0.000000	0.408102	-42.013119	0.000000	0.000000	0.000000	0.000000	0.000000	1
103.956923	12.533124	0.000000	0.390499	0.224167	0.000000	0.450267	-28.733885	0.000000	0.000000	0.000000	0.000000	0.000000	1
107.065915	12.533124	0.000000	0.315511	0.247346	0.000000	0.400908	-34.217020	0.000000	0.000000	0.000000	0.000000	0.000000	1
110.174908	12.533124	0.000000	0.142574	0.196380	0.000000	0.242678	-53.471695	0.000000	0.000000	0.000000	0.000000	0.000000	1
113.283900	12.533124	0.000000	0.030484	0.010783	0.000000	0.032335	-38.705772	0.000000	0.000000	0.000000	0.000000	0.000000	2
116.392892	12.533124	0.000000	-0.002630	-0.025297	0.000000	0.025433	-6.287506	0.000000	0.000000	0.000000	0.000000	0.000000	1
119.501884	12.533124	0.000000	0.007765	-0.007348	0.000000	0.010691	2.433802	0.000000	0.000000	0.000000	0.000000	0.000000	1
122.610876	12.533124	0.000000	-0.005718	0.000733	0.000000	0.005764	0.015451	0.000000	0.000000	0.000000	0.000000	0.000000	1
125.719868	12.533124	0.000000	-0.004478	0.000735	0.000000	0.004538	0.162478	0.000000	0.000000	0.000000	0.000000	0.000000	1
128.828860	12.533124	0.000000	0.000457	0.000439	0.000000	0.000634	1.876306	0.000000	0.000000	0.000000	0.000000	0.000000	1
131.937852	12.533124	0.000000	-0.008248	0.005690	0.000000	0.010020	1.978293	0.000000	0.000000	0.000000	0.000000	0.000000	1
135.046844	12.533124	0.000000	-0.006392	0.005955	0.000000	0.008736	0.580621	0.000000	0.000000	0.000000	0.000000	0.000000	1
138.155836	12.533124	0.000000	-0.002975	0.004676	0.000000	0.005542	-0.103554	0.000000	0.000000	0.000000	0.000000	0.000000	1
141.264829	12.533124	0.000000	-0.004403	0.004165	0.000000	0.006061	-0.404192	0.000000	0.000000	0.000000	0.000000	0.000000	1
144.373821	12.533124	0.000000	-0.002885	0.004502	0.000000	0.005347	-0.513294	0.000000	0.000000	0.000000	0.000000	0.000000	1
147.482813	12.533124	0.000000	-0.001364	0.001331	0.000000	0.001906	0.338791	0.000000	0.000000	0.000000	0.000000	0.000000	1
150.591805	12.533124	0.000000	-0.003240	0.002442	0.000000	0.004057	0.735261	0.000000	0.000000	0.000000	0.000000	0.000000	1
153.700797	12.533124	0.000000	-0.008434	0.013966	0.000000	0.016315	-0.760085	0.000000	0.000000	0.000000	0.000000	0.000000	1
156.809789	12.533124	0.000000	-0.003004	0.007877	0.000000	0.008431	-1.660748	0.000000	0.000000	0.000000	0.000000	0.000000	1
159.918781	12.533124	0.000000	-0.000023	0.003999	0.000000	0.003999	-1.215969	0.000000	0.000000	0.000000	0.000000	0.000000	1
4.469176	15.642117	0.000000	0.000941	0.003006	0.000000	0.003150	-0.814190	0.000000	0.000000	0.000000	0.000000	0.000000	1
7.578168	15.642117	0.000000	-0.001098	0.002598	0.000000	0.002820	0.235052	0.000000	0.000000	0.000000	0.000000	0.000000	1
10.687160	15.642117	0.000000	-0.005436	0.005907	0.000000	0.008028	1.065209	0.000000	0.000000	0.000000	0.000000	0.000000	1
13.796152	15.642117	0.000000	-0.005651	0.007070	0.000000	0.009051	0.831640	0.000000	0.000000	0.000000	0.000000	0.000000	1
16.905145	15.642117	0.000000	-0.002618	0.008498	0.000000	0.008892	0.250042	0.000000	0.000000	0.000000	0.000000	0.000000	1
20.014137	15.642117	0.000000	0.009519	0.007200	0.000000	0.011936	0.235837	0.000000	0.000000	0.000000	0.000000	0.000000	1
23.123129	15.642117	0.000000	0.008863	0.006324	0.000000	0.010888	2.450736	0.000000	0.000000	0.000000	0.000000	0.000000	1
26.232121	15.642117	0.000000	0.016925	0.018365	0.000000	0.024974	3.091449	0.000000	0.000000	0.000000	0.000000	0.000000	1
29.341113	15.642117	0.000000	0.017882	0.020252	0.000000	0.027017	1.917757	0.000000	0.000000	0.000000	0.000000	0.000000	1
32.450105	15.642117	0.000000	0.014984	0.018183	0.000000	0.023561	1.950603	0.000000	0.000000	0.000000	0.000000	0.000000	1
35.559097	15.642117	0.000000	-0.009323	0.015570	0.000000	0.018148	2.299659	0.000000	0.000000	0.000000	0.000000	0.000000	1
38.668089	15.642117	0.000000	-0.011026	0.015673	0.000000	0.019163	2.004010	0.000000	0.000000	0.000000	0.000000	0.000000	1
41.777081	15.642117	0.000000	0.013707	0.018287	0.000000	0.022854	1.344396	0.000000	0.000000	0.000000	0.000000	0.000000	1
44.886073	15.642117	0.000000	0.013990	0.017262	0.000000	0.022219	3.578121	0.000000	0.000000	0.000000	0.000000	0.000000	1
47.995066	15.642117	0.000000	-0.013673	0.017975	0.000000	0.022585	9.970358	0.000000	0.000000	0.000000	0.000000	0.000000	1
51.104058	15.642117	0.000000	-0.064680	0.047001	0.000000	0.079954	5.662220	0.000000	0.000000	0.000000	0.000000	0.000000	1
54.213050	15.642117	0.000000	-0.047421	0.014652	0.000000	0.049633	0.434566	0.000000	0.000000	0.000000	0.000000	0.000000	1
57.322042	15.642117	0.000000	-0.015660	0.000020	0.000000	0.015660	12.709830	0.000000	0.000000	0.000000	0.000000	0.000000	1
60.431034	15.642117	0.000000	0.002489	0.038437	0.000000	0.038517	17.569561	0.000000	0.000000	0.000000	0.000000	0.000000	2
63.540026	15.642117	0.000000	0.017464	0.035003	0.000000	0.039118	4.661097	0.000000	0.000000	0.000000	0.000000	0.000000	2
66.649018	15.642117	0.000000	-0.011634	-0.000033	0.000000	0.011634	-1.464926	0.000000	0.000000	0.000000	0.000000	0.000000	1
69.758010	15.642117	0.000000	-0.026461	-0.001345	0.000000	0.026495	-0.988206	0.000000	0.000000	0.000000	0.000000	0.000000	2
72.867002	15.642117	0.000000	-0.028497	0.000148	0.000000	0.028498	-6.910192	0.000000	0.000000	0.000000	0.000000	0.000000	2
75.975994	15.642117	0.000000	-0.046114	-0.019154	0.000000	0.049934	-2.399685	0.000000	0.000000	0.000000	0.000000	0.000000	1
79.084987	15.642117	0.000000	-0.037270	0.037222	0.000000	0.052674	13.035759	0.000000	0.000000	0.000000	0.000000	0.000000	2
82.193979	15.642117	0.000000	-0.024821	0.076542	0.000000	0.080466	33.817302	0.000000	0.000000	0.000000	0.000000	0.000000	1
85.302971	15.642117	0.000000	-0.013999	0.129208	0.000000	0.129964	48.934033	0.000000	0.000000	0.000000	0.000000	0.000000	1
88.411963	15.642117	0.000000	0.194027	0.430778	0.000000	0.472457	37.356349	0.000000	0.000000	0.000000	0.000000	0.000000	2
91.520955	15.642117	0.000000	0.283754	0.570231	0.000000	0.636930	-10.542654	0.000000	0.000000	0.000000	0.000000	0.000000	2
94.629947	15.642117	0.000000	0.359865	0.377361	0.000000	0.521444	-22.185994	0.000000	0.000000	0.000000	0.000000	0.000000	1
97.738939	15.642117	0.000000	0.330490	0.372127	0.000000	0.497697	-8.586423	0.000000	0.000000	0.000000	0.000000	0.000000	1
100.847931	15.642117	0.000000	0.331300	0.355561	0.000000	0.485986	-17.268223	0.000000	0.000000	0.000000	0.000000	0.000000	1
103.956923	15.642117	0.000000	0.373119	0.296271	0.000000	0.476439	-10.770401	0.000000	0.000000	0.000000	0.000000	0.000000	1
107.065915	15.642117	0.000000	0.309691	0.197748	0.000000	0.367441	-8.391779	0.000000	0.000000	0.000000	0.000000	0.000000	1
110.174908	15.642117	0.000000	0.211446	0.167017	0.000000	0.269451	-29.738275	0.000000	0.000000	0.000000	0.000000	0.000000	1
113.283900	15.642117	0.000000	0.039690	0.061998	0.000000	0.073614	-37.317991	0.000000	0.000000	0.000000	0.000000	0.000000	1
116.392892	15.642117	0.000000	0.016855	-0.008302	0.000000	0.018789	-14.260559	0.000000	0.000000	0.000000	0.000000	0.000000	1
119.501884	15.642117	0.000000	0.013164	-0.004783	0.000000	0.014006	-0.694564	0.000000	0.000000	0.000000	0.000000	0.000000	1