TITLE = "PIV Result  43 "
VARIABLES = "X (mm)""Y (mm)""Z (mm)""U (m/s)""V (m/s)""W (m/s)""Speed (m/s)""Vorticity""U-std""V-std""W-std""Speed-std""Vorticity-std""Flag"
ZONE T="ZONE 43 "
I= 51 , J= 16 , K= 1 , F=POINT
DT=(DOUBLE DOUBLE DOUBLE DOUBLE DOUBLE DOUBLE DOUBLE DOUBLE DOUBLE DOUBLE DOUBLE DOUBLE DOUBLE DOUBLE)
4.469176	3.206148	0.000000	0.001361	0.005222	0.000000	0.005396	0.621528	0.000000	0.000000	0.000000	0.000000	0.000000	1
7.578168	3.206148	0.000000	0.001320	0.006605	0.000000	0.006736	0.709622	0.000000	0.000000	0.000000	0.000000	0.000000	1
10.687160	3.206148	0.000000	0.001753	0.007215	0.000000	0.007425	0.895583	0.000000	0.000000	0.000000	0.000000	0.000000	1
13.796152	3.206148	0.000000	0.001215	0.006520	0.000000	0.006632	0.832297	0.000000	0.000000	0.000000	0.000000	0.000000	1
16.905145	3.206148	0.000000	-0.002205	0.009936	0.000000	0.010177	-0.014209	0.000000	0.000000	0.000000	0.000000	0.000000	1
20.014137	3.206148	0.000000	-0.002186	0.009971	0.000000	0.010208	0.163283	0.000000	0.000000	0.000000	0.000000	0.000000	1
23.123129	3.206148	0.000000	0.005913	0.013572	0.000000	0.014804	0.215235	0.000000	0.000000	0.000000	0.000000	0.000000	1
26.232121	3.206148	0.000000	0.003077	0.007637	0.000000	0.008234	-0.183274	0.000000	0.000000	0.000000	0.000000	0.000000	1
29.341113	3.206148	0.000000	0.000241	0.009497	0.000000	0.009500	-0.169884	0.000000	0.000000	0.000000	0.000000	0.000000	1
32.450105	3.206148	0.000000	-0.000788	0.011029	0.000000	0.011057	-3.312350	0.000000	0.000000	0.000000	0.000000	0.000000	1
35.559097	3.206148	0.000000	0.000633	0.000947	0.000000	0.001139	-5.245586	0.000000	0.000000	0.000000	0.000000	0.000000	1
38.668089	3.206148	0.000000	-0.000396	0.000627	0.000000	0.000742	-3.788892	0.000000	0.000000	0.000000	0.000000	0.000000	1
41.777081	3.206148	0.000000	0.001358	0.000429	0.000000	0.001424	-3.208487	0.000000	0.000000	0.000000	0.000000	0.000000	1
44.886073	3.206148	0.000000	0.002598	0.000012	0.000000	0.002598	-2.235847	0.000000	0.000000	0.000000	0.000000	0.000000	1
47.995066	3.206148	0.000000	0.001602	0.000184	0.000000	0.001613	-1.686489	0.000000	0.000000	0.000000	0.000000	0.000000	1
51.104058	3.206148	0.000000	0.001225	-0.000429	0.000000	0.001298	-4.071281	0.000000	0.000000	0.000000	0.000000	0.000000	1
54.213050	3.206148	0.000000	0.009151	-0.001527	0.000000	0.009278	-5.977904	0.000000	0.000000	0.000000	0.000000	0.000000	1
57.322042	3.206148	0.000000	0.009900	-0.000794	0.000000	0.009932	-4.807363	0.000000	0.000000	0.000000	0.000000	0.000000	1
60.431034	3.206148	0.000000	0.006172	0.000594	0.000000	0.006200	-1.695096	0.000000	0.000000	0.000000	0.000000	0.000000	1
63.540026	3.206148	0.000000	0.005678	-0.010552	0.000000	0.011982	40.587064	0.000000	0.000000	0.000000	0.000000	0.000000	1
66.649018	3.206148	0.000000	-0.068664	-0.009393	0.000000	0.069303	96.974972	0.000000	0.000000	0.000000	0.000000	0.000000	2
69.758010	3.206148	0.000000	-0.282278	0.267786	0.000000	0.389089	103.380090	0.000000	0.000000	0.000000	0.000000	0.000000	2
72.867002	3.206148	0.000000	-0.298707	0.275066	0.000000	0.406063	50.669563	0.000000	0.000000	0.000000	0.000000	0.000000	1
75.975994	3.206148	0.000000	-0.477184	0.345458	0.000000	0.589106	-21.687546	0.000000	0.000000	0.000000	0.000000	0.000000	1
79.084987	3.206148	0.000000	-0.378467	0.242150	0.000000	0.449304	-46.319830	0.000000	0.000000	0.000000	0.000000	0.000000	1
82.193979	3.206148	0.000000	-0.179757	0.137350	0.000000	0.226225	-43.461185	0.000000	0.000000	0.000000	0.000000	0.000000	2
85.302971	3.206148	0.000000	-0.018669	-0.002093	0.000000	0.018786	-23.421894	0.000000	0.000000	0.000000	0.000000	0.000000	1
88.411963	3.206148	0.000000	-0.001704	-0.002087	0.000000	0.002694	-0.123910	0.000000	0.000000	0.000000	0.000000	0.000000	1
91.520955	3.206148	0.000000	-0.037795	0.006656	0.000000	0.038376	-6.049506	0.000000	0.000000	0.000000	0.000000	0.000000	1
94.629947	3.206148	0.000000	-0.012840	0.012434	0.000000	0.017874	-10.974510	0.000000	0.000000	0.000000	0.000000	0.000000	2
97.738939	3.206148	0.000000	-0.005834	-0.000634	0.000000	0.005869	-2.042201	0.000000	0.000000	0.000000	0.000000	0.000000	1
100.847931	3.206148	0.000000	-0.003005	-0.000746	0.000000	0.003096	7.653723	0.000000	0.000000	0.000000	0.000000	0.000000	1
103.956923	3.206148	0.000000	-0.002305	0.000226	0.000000	0.002316	8.237182	0.000000	0.000000	0.000000	0.000000	0.000000	1
107.065915	3.206148	0.000000	0.003039	-0.001190	0.000000	0.003264	3.528568	0.000000	0.000000	0.000000	0.000000	0.000000	1
110.174908	3.206148	0.000000	0.000335	-0.000177	0.000000	0.000379	1.669082	0.000000	0.000000	0.000000	0.000000	0.000000	1
113.283900	3.206148	0.000000	0.003050	0.001335	0.000000	0.003329	2.289459	0.000000	0.000000	0.000000	0.000000	0.000000	1
116.392892	3.206148	0.000000	-0.000760	0.000835	0.000000	0.001129	3.073905	0.000000	0.000000	0.000000	0.000000	0.000000	1
119.501884	3.206148	0.000000	-0.001882	0.001055	0.000000	0.002158	2.465848	0.000000	0.000000	0.000000	0.000000	0.000000	1
122.610876	3.206148	0.000000	0.001399	0.000367	0.000000	0.001446	1.840439	0.000000	0.000000	0.000000	0.000000	0.000000	1
125.719868	3.206148	0.000000	0.000847	0.000095	0.000000	0.000853	2.849756	0.000000	0.000000	0.000000	0.000000	0.000000	1
128.828860	3.206148	0.000000	0.000838	0.000110	0.000000	0.000845	2.455452	0.000000	0.000000	0.000000	0.000000	0.000000	1
131.937852	3.206148	0.000000	-0.000088	0.000077	0.000000	0.000117	1.971727	0.000000	0.000000	0.000000	0.000000	0.000000	1
135.046844	3.206148	0.000000	0.001779	0.013159	0.000000	0.013279	0.820959	0.000000	0.000000	0.000000	0.000000	0.000000	1
138.155836	3.206148	0.000000	-0.000789	0.009367	0.000000	0.009400	-0.011315	0.000000	0.000000	0.000000	0.000000	0.000000	1
141.264829	3.206148	0.000000	0.001236	0.012538	0.000000	0.012598	0.999658	0.000000	0.000000	0.000000	0.000000	0.000000	1
144.373821	3.206148	0.000000	0.002387	0.015439	0.000000	0.015623	0.082217	0.000000	0.000000	0.000000	0.000000	0.000000	1
147.482813	3.206148	0.000000	-0.011773	0.016087	0.000000	0.019935	-0.423260	0.000000	0.000000	0.000000	0.000000	0.000000	1
150.591805	3.206148	0.000000	-0.003240	0.012840	0.000000	0.013243	-0.013518	0.000000	0.000000	0.000000	0.000000	0.000000	1
153.700797	3.206148	0.000000	-0.001861	0.012153	0.000000	0.012295	0.704773	0.000000	0.000000	0.000000	0.000000	0.000000	1
156.809789	3.206148	0.000000	-0.004104	0.007442	0.000000	0.008498	1.084718	0.000000	0.000000	0.000000	0.000000	0.000000	1
159.918781	3.206148	0.000000	-0.004029	0.007591	0.000000	0.008593	0.628320	0.000000	0.000000	0.000000	0.000000	0.000000	1
4.469176	6.315140	0.000000	0.001166	0.005800	0.000000	0.005916	-0.448505	0.000000	0.000000	0.000000	0.000000	0.000000	1
7.578168	6.315140	0.000000	0.000204	0.006969	0.000000	0.006972	-0.553055	0.000000	0.000000	0.000000	0.000000	0.000000	1
10.687160	6.315140	0.000000	-0.000196	0.008254	0.000000	0.008256	-0.585434	0.000000	0.000000	0.000000	0.000000	0.000000	1
13.796152	6.315140	0.000000	-0.001586	0.010376	0.000000	0.010496	-0.587509	0.000000	0.000000	0.000000	0.000000	0.000000	1
16.905145	6.315140	0.000000	-0.000365	0.010171	0.000000	0.010178	-0.644035	0.000000	0.000000	0.000000	0.000000	0.000000	1
20.014137	6.315140	0.000000	-0.000936	0.008875	0.000000	0.008924	-0.252740	0.000000	0.000000	0.000000	0.000000	0.000000	1
23.123129	6.315140	0.000000	0.001618	0.008611	0.000000	0.008761	-0.063785	0.000000	0.000000	0.000000	0.000000	0.000000	1
26.232121	6.315140	0.000000	0.002442	0.005911	0.000000	0.006396	0.275124	0.000000	0.000000	0.000000	0.000000	0.000000	1
29.341113	6.315140	0.000000	0.000885	0.005485	0.000000	0.005556	0.577250	0.000000	0.000000	0.000000	0.000000	0.000000	1
32.450105	6.315140	0.000000	0.013580	0.015426	0.000000	0.020552	-1.407599	0.000000	0.000000	0.000000	0.000000	0.000000	1
35.559097	6.315140	0.000000	0.013525	0.015113	0.000000	0.020281	-3.136800	0.000000	0.000000	0.000000	0.000000	0.000000	1
38.668089	6.315140	0.000000	0.008842	0.009983	0.000000	0.013336	-2.996689	0.000000	0.000000	0.000000	0.000000	0.000000	1
41.777081	6.315140	0.000000	0.005901	0.004422	0.000000	0.007374	-3.507014	0.000000	0.000000	0.000000	0.000000	0.000000	1
44.886073	6.315140	0.000000	0.004462	-0.009115	0.000000	0.010149	-2.135818	0.000000	0.000000	0.000000	0.000000	0.000000	1
47.995066	6.315140	0.000000	0.006069	-0.010401	0.000000	0.012042	-0.485033	0.000000	0.000000	0.000000	0.000000	0.000000	1
51.104058	6.315140	0.000000	0.012401	-0.007675	0.000000	0.014584	-1.761238	0.000000	0.000000	0.000000	0.000000	0.000000	1
54.213050	6.315140	0.000000	0.027900	-0.013753	0.000000	0.031105	-2.009256	0.000000	0.000000	0.000000	0.000000	0.000000	1
57.322042	6.315140	0.000000	0.029313	-0.013566	0.000000	0.032299	0.233722	0.000000	0.000000	0.000000	0.000000	0.000000	1
60.431034	6.315140	0.000000	0.030157	0.005900	0.000000	0.030729	12.391065	0.000000	0.000000	0.000000	0.000000	0.000000	1
63.540026	6.315140	0.000000	-0.037783	-0.000966	0.000000	0.037795	59.519602	0.000000	0.000000	0.000000	0.000000	0.000000	2
66.649018	6.315140	0.000000	-0.265848	0.260506	0.000000	0.372208	97.062696	0.000000	0.000000	0.000000	0.000000	0.000000	1
69.758010	6.315140	0.000000	-0.369690	0.401434	0.000000	0.545729	84.974419	0.000000	0.000000	0.000000	0.000000	0.000000	1
72.867002	6.315140	0.000000	-0.529304	0.659075	0.000000	0.845306	24.238321	0.000000	0.000000	0.000000	0.000000	0.000000	1
75.975994	6.315140	0.000000	-0.483345	0.399122	0.000000	0.626834	-50.631562	0.000000	0.000000	0.000000	0.000000	0.000000	2
79.084987	6.315140	0.000000	-0.338384	0.219448	0.000000	0.403313	-66.170897	0.000000	0.000000	0.000000	0.000000	0.000000	1
82.193979	6.315140	0.000000	-0.155009	0.129948	0.000000	0.202273	-44.792746	0.000000	0.000000	0.000000	0.000000	0.000000	2
85.302971	6.315140	0.000000	-0.016854	0.014603	0.000000	0.022301	-16.522398	0.000000	0.000000	0.000000	0.000000	0.000000	1
88.411963	6.315140	0.000000	-0.003927	0.004267	0.000000	0.005799	2.886736	0.000000	0.000000	0.000000	0.000000	0.000000	1
91.520955	6.315140	0.000000	-0.019846	0.019630	0.000000	0.027914	-2.258907	0.000000	0.000000	0.000000	0.000000	0.000000	1
94.629947	6.315140	0.000000	0.024796	-0.014176	0.000000	0.028562	-4.692908	0.000000	0.000000	0.000000	0.000000	0.000000	1
97.738939	6.315140	0.000000	0.005319	-0.005185	0.000000	0.007428	0.978735	0.000000	0.000000	0.000000	0.000000	0.000000	2
100.847931	6.315140	0.000000	-0.033770	0.002785	0.000000	0.033884	2.557379	0.000000	0.000000	0.000000	0.000000	0.000000	1
103.956923	6.315140	0.000000	-0.033407	0.007659	0.000000	0.034274	0.838612	0.000000	0.000000	0.000000	0.000000	0.000000	1
107.065915	6.315140	0.000000	-0.005861	0.003797	0.000000	0.006984	0.114742	0.000000	0.000000	0.000000	0.000000	0.000000	1
110.174908	6.315140	0.000000	-0.003708	-0.001004	0.000000	0.003842	0.514270	0.000000	0.000000	0.000000	0.000000	0.000000	1
113.283900	6.315140	0.000000	-0.005431	-0.003439	0.000000	0.006428	0.573905	0.000000	0.000000	0.000000	0.000000	0.000000	1
116.392892	6.315140	0.000000	-0.010314	-0.004103	0.000000	0.011101	0.999559	0.000000	0.000000	0.000000	0.000000	0.000000	1
119.501884	6.315140	0.000000	-0.009248	0.000113	0.000000	0.009249	0.567040	0.000000	0.000000	0.000000	0.000000	0.000000	1
122.610876	6.315140	0.000000	-0.005770	-0.004424	0.000000	0.007271	0.524543	0.000000	0.000000	0.000000	0.000000	0.000000	1
125.719868	6.315140	0.000000	-0.006249	-0.004839	0.000000	0.007903	2.304137	0.000000	0.000000	0.000000	0.000000	0.000000	1
128.828860	6.315140	0.000000	-0.007370	0.001702	0.000000	0.007564	3.159486	0.000000	0.000000	0.000000	0.000000	0.000000	1
131.937852	6.315140	0.000000	0.002982	0.005272	0.000000	0.006057	2.869462	0.000000	0.000000	0.000000	0.000000	0.000000	1
135.046844	6.315140	0.000000	0.001594	0.010921	0.000000	0.011036	1.300608	0.000000	0.000000	0.000000	0.000000	0.000000	1
138.155836	6.315140	0.000000	-0.000757	0.008924	0.000000	0.008956	0.953151	0.000000	0.000000	0.000000	0.000000	0.000000	1
141.264829	6.315140	0.000000	0.000909	0.010954	0.000000	0.010992	2.635984	0.000000	0.000000	0.000000	0.000000	0.000000	1
144.373821	6.315140	0.000000	0.001957	0.014232	0.000000	0.014366	1.550554	0.000000	0.000000	0.000000	0.000000	0.000000	1
147.482813	6.315140	0.000000	-0.009211	0.009803	0.000000	0.013452	-0.177308	0.000000	0.000000	0.000000	0.000000	0.000000	1
150.591805	6.315140	0.000000	-0.009298	0.010204	0.000000	0.013805	-0.707037	0.000000	0.000000	0.000000	0.000000	0.000000	1
153.700797	6.315140	0.000000	-0.005590	0.000286	0.000000	0.005597	0.159646	0.000000	0.000000	0.000000	0.000000	0.000000	1
156.809789	6.315140	0.000000	-0.005904	0.009051	0.000000	0.010807	1.298792	0.000000	0.000000	0.000000	0.000000	0.000000	1
159.918781	6.315140	0.000000	-0.005753	0.009285	0.000000	0.010923	1.128420	0.000000	0.000000	0.000000	0.000000	0.000000	1
4.469176	9.424132	0.000000	0.006834	0.009856	0.000000	0.011994	0.932643	0.000000	0.000000	0.000000	0.000000	0.000000	1
7.578168	9.424132	0.000000	0.008072	0.012781	0.000000	0.015117	-0.645194	0.000000	0.000000	0.000000	0.000000	0.000000	1
10.687160	9.424132	0.000000	0.004964	0.011386	0.000000	0.012421	-1.911394	0.000000	0.000000	0.000000	0.000000	0.000000	1
13.796152	9.424132	0.000000	0.003841	0.007292	0.000000	0.008242	-1.573678	0.000000	0.000000	0.000000	0.000000	0.000000	1
16.905145	9.424132	0.000000	0.003354	0.004241	0.000000	0.005407	-0.663836	0.000000	0.000000	0.000000	0.000000	0.000000	1
20.014137	9.424132	0.000000	0.003613	0.010366	0.000000	0.010977	-0.128518	0.000000	0.000000	0.000000	0.000000	0.000000	1
23.123129	9.424132	0.000000	0.000782	0.009465	0.000000	0.009498	0.097503	0.000000	0.000000	0.000000	0.000000	0.000000	1
26.232121	9.424132	0.000000	-0.000852	0.008650	0.000000	0.008691	1.215524	0.000000	0.000000	0.000000	0.000000	0.000000	1
29.341113	9.424132	0.000000	0.003150	0.016554	0.000000	0.016851	1.451274	0.000000	0.000000	0.000000	0.000000	0.000000	1
32.450105	9.424132	0.000000	0.013520	0.016779	0.000000	0.021548	0.982811	0.000000	0.000000	0.000000	0.000000	0.000000	1
35.559097	9.424132	0.000000	0.014353	0.016081	0.000000	0.021555	0.518622	0.000000	0.000000	0.000000	0.000000	0.000000	1
38.668089	9.424132	0.000000	0.011767	0.013959	0.000000	0.018257	0.007602	0.000000	0.000000	0.000000	0.000000	0.000000	1
41.777081	9.424132	0.000000	0.011557	0.011690	0.000000	0.016439	-1.399635	0.000000	0.000000	0.000000	0.000000	0.000000	1
44.886073	9.424132	0.000000	0.002788	-0.001705	0.000000	0.003268	-0.781781	0.000000	0.000000	0.000000	0.000000	0.000000	1
47.995066	9.424132	0.000000	0.002361	-0.000203	0.000000	0.002369	0.618952	0.000000	0.000000	0.000000	0.000000	0.000000	1
51.104058	9.424132	0.000000	0.010721	-0.005007	0.000000	0.011832	0.701218	0.000000	0.000000	0.000000	0.000000	0.000000	1
54.213050	9.424132	0.000000	0.021824	-0.003170	0.000000	0.022053	2.807889	0.000000	0.000000	0.000000	0.000000	0.000000	1
57.322042	9.424132	0.000000	0.015905	-0.001987	0.000000	0.016029	10.410971	0.000000	0.000000	0.000000	0.000000	0.000000	1
60.431034	9.424132	0.000000	0.021256	0.000982	0.000000	0.021279	41.394208	0.000000	0.000000	0.000000	0.000000	0.000000	2
63.540026	9.424132	0.000000	-0.199028	0.122229	0.000000	0.233564	83.301078	0.000000	0.000000	0.000000	0.000000	0.000000	1
66.649018	9.424132	0.000000	-0.318850	0.337615	0.000000	0.464380	110.948065	0.000000	0.000000	0.000000	0.000000	0.000000	1
69.758010	9.424132	0.000000	-0.412771	0.617664	0.000000	0.742892	71.258054	0.000000	0.000000	0.000000	0.000000	0.000000	1
72.867002	9.424132	0.000000	-0.513470	0.643565	0.000000	0.823303	-19.790708	0.000000	0.000000	0.000000	0.000000	0.000000	1
75.975994	9.424132	0.000000	-0.487794	0.576842	0.000000	0.755440	-88.461706	0.000000	0.000000	0.000000	0.000000	0.000000	1
79.084987	9.424132	0.000000	-0.233619	0.205291	0.000000	0.311002	-89.351299	0.000000	0.000000	0.000000	0.000000	0.000000	1
82.193979	9.424132	0.000000	-0.089132	0.047204	0.000000	0.100860	-38.843769	0.000000	0.000000	0.000000	0.000000	0.000000	2
85.302971	9.424132	0.000000	-0.051649	0.038257	0.000000	0.064275	-7.027945	0.000000	0.000000	0.000000	0.000000	0.000000	1
88.411963	9.424132	0.000000	-0.028099	0.025330	0.000000	0.037830	3.017260	0.000000	0.000000	0.000000	0.000000	0.000000	1
91.520955	9.424132	0.000000	-0.023780	0.019498	0.000000	0.030751	1.942171	0.000000	0.000000	0.000000	0.000000	0.000000	1
94.629947	9.424132	0.000000	0.005329	0.011314	0.000000	0.012506	0.907581	0.000000	0.000000	0.000000	0.000000	0.000000	2
97.738939	9.424132	0.000000	-0.000503	0.015380	0.000000	0.015389	0.631256	0.000000	0.000000	0.000000	0.000000	0.000000	2
100.847931	9.424132	0.000000	-0.014709	0.032043	0.000000	0.035258	-3.467957	0.000000	0.000000	0.000000	0.000000	0.000000	1
103.956923	9.424132	0.000000	-0.013502	0.023165	0.000000	0.026813	-5.351828	0.000000	0.000000	0.000000	0.000000	0.000000	1
107.065915	9.424132	0.000000	-0.006478	0.007704	0.000000	0.010065	-2.556718	0.000000	0.000000	0.000000	0.000000	0.000000	1
110.174908	9.424132	0.000000	-0.007654	0.005526	0.000000	0.009441	-0.690373	0.000000	0.000000	0.000000	0.000000	0.000000	1
113.283900	9.424132	0.000000	-0.003904	-0.000007	0.000000	0.003904	-1.336591	0.000000	0.000000	0.000000	0.000000	0.000000	1
116.392892	9.424132	0.000000	-0.004459	-0.000608	0.000000	0.004500	-1.138436	0.000000	0.000000	0.000000	0.000000	0.000000	1
119.501884	9.424132	0.000000	-0.004315	0.001247	0.000000	0.004491	-1.010698	0.000000	0.000000	0.000000	0.000000	0.000000	1
122.610876	9.424132	0.000000	-0.007061	-0.002417	0.000000	0.007464	-0.904176	0.000000	0.000000	0.000000	0.000000	0.000000	1
125.719868	9.424132	0.000000	-0.007784	-0.002827	0.000000	0.008281	0.965602	0.000000	0.000000	0.000000	0.000000	0.000000	1
128.828860	9.424132	0.000000	-0.009961	0.006373	0.000000	0.011825	2.810883	0.000000	0.000000	0.000000	0.000000	0.000000	1
131.937852	9.424132	0.000000	-0.012131	0.013280	0.000000	0.017987	2.849901	0.000000	0.000000	0.000000	0.000000	0.000000	1
135.046844	9.424132	0.000000	-0.003691	0.005902	0.000000	0.006961	2.563918	0.000000	0.000000	0.000000	0.000000	0.000000	1
138.155836	9.424132	0.000000	-0.001407	0.005434	0.000000	0.005613	2.704160	0.000000	0.000000	0.000000	0.000000	0.000000	1
141.264829	9.424132	0.000000	-0.011234	0.010986	0.000000	0.015713	2.951318	0.000000	0.000000	0.000000	0.000000	0.000000	1
144.373821	9.424132	0.000000	-0.013953	0.012408	0.000000	0.018672	1.023720	0.000000	0.000000	0.000000	0.000000	0.000000	1
147.482813	9.424132	0.000000	-0.006539	0.008388	0.000000	0.010635	-0.850981	0.000000	0.000000	0.000000	0.000000	0.000000	1
150.591805	9.424132	0.000000	-0.008330	0.007692	0.000000	0.011338	-1.051861	0.000000	0.000000	0.000000	0.000000	0.000000	1
153.700797	9.424132	0.000000	-0.005150	0.005536	0.000000	0.007561	-0.431556	0.000000	0.000000	0.000000	0.000000	0.000000	1
156.809789	9.424132	0.000000	-0.005886	0.005917	0.000000	0.008346	0.408858	0.000000	0.000000	0.000000	0.000000	0.000000	1
159.918781	9.424132	0.000000	-0.011213	0.010367	0.000000	0.015271	0.411308	0.000000	0.000000	0.000000	0.000000	0.000000	1
4.469176	12.533124	0.000000	0.001312	0.002098	0.000000	0.002475	4.097720	0.000000	0.000000	0.000000	0.000000	0.000000	1
7.578168	12.533124	0.000000	0.011713	0.018334	0.000000	0.021756	0.710992	0.000000	0.000000	0.000000	0.000000	0.000000	1
10.687160	12.533124	0.000000	0.005244	0.009142	0.000000	0.010539	-2.160785	0.000000	0.000000	0.000000	0.000000	0.000000	1
13.796152	12.533124	0.000000	0.004383	0.006724	0.000000	0.008026	-1.055706	0.000000	0.000000	0.000000	0.000000	0.000000	1
16.905145	12.533124	0.000000	0.004816	0.004935	0.000000	0.006895	0.157021	0.000000	0.000000	0.000000	0.000000	0.000000	1
20.014137	12.533124	0.000000	0.004239	0.007071	0.000000	0.008244	0.406997	0.000000	0.000000	0.000000	0.000000	0.000000	1
23.123129	12.533124	0.000000	0.000863	0.007624	0.000000	0.007673	0.259052	0.000000	0.000000	0.000000	0.000000	0.000000	1
26.232121	12.533124	0.000000	-0.004087	0.013028	0.000000	0.013654	0.859041	0.000000	0.000000	0.000000	0.000000	0.000000	1
29.341113	12.533124	0.000000	0.002632	0.014740	0.000000	0.014974	1.155765	0.000000	0.000000	0.000000	0.000000	0.000000	1
32.450105	12.533124	0.000000	0.006602	0.013337	0.000000	0.014882	1.330123	0.000000	0.000000	0.000000	0.000000	0.000000	1
35.559097	12.533124	0.000000	0.005200	0.009969	0.000000	0.011244	1.716930	0.000000	0.000000	0.000000	0.000000	0.000000	1
38.668089	12.533124	0.000000	0.002630	0.007481	0.000000	0.007929	1.351369	0.000000	0.000000	0.000000	0.000000	0.000000	1
41.777081	12.533124	0.000000	0.002307	0.005288	0.000000	0.005769	0.210811	0.000000	0.000000	0.000000	0.000000	0.000000	1
44.886073	12.533124	0.000000	-0.001208	0.004025	0.000000	0.004203	-0.095818	0.000000	0.000000	0.000000	0.000000	0.000000	1
47.995066	12.533124	0.000000	-0.000488	0.002962	0.000000	0.003002	-0.424532	0.000000	0.000000	0.000000	0.000000	0.000000	1
51.104058	12.533124	0.000000	0.006124	-0.000479	0.000000	0.006143	-1.248501	0.000000	0.000000	0.000000	0.000000	0.000000	1
54.213050	12.533124	0.000000	0.004578	-0.012744	0.000000	0.013542	2.265714	0.000000	0.000000	0.000000	0.000000	0.000000	1
57.322042	12.533124	0.000000	0.007284	-0.005737	0.000000	0.009272	26.779643	0.000000	0.000000	0.000000	0.000000	0.000000	1
60.431034	12.533124	0.000000	-0.083336	0.037367	0.000000	0.091330	68.055292	0.000000	0.000000	0.000000	0.000000	0.000000	2
63.540026	12.533124	0.000000	-0.312975	0.238580	0.000000	0.393540	89.365469	0.000000	0.000000	0.000000	0.000000	0.000000	1
66.649018	12.533124	0.000000	-0.361548	0.421784	0.000000	0.555535	118.716283	0.000000	0.000000	0.000000	0.000000	0.000000	1
69.758010	12.533124	0.000000	-0.508394	0.999516	0.000000	1.121382	57.080365	0.000000	0.000000	0.000000	0.000000	0.000000	1
72.867002	12.533124	0.000000	-0.637459	0.702380	0.000000	0.948521	-79.551115	0.000000	0.000000	0.000000	0.000000	0.000000	2
75.975994	12.533124	0.000000	-0.297420	0.422146	0.000000	0.516397	-119.657366	0.000000	0.000000	0.000000	0.000000	0.000000	1
79.084987	12.533124	0.000000	-0.224795	0.195619	0.000000	0.297993	-84.299768	0.000000	0.000000	0.000000	0.000000	0.000000	2
82.193979	12.533124	0.000000	-0.054363	0.042000	0.000000	0.068697	-32.643810	0.000000	0.000000	0.000000	0.000000	0.000000	1
85.302971	12.533124	0.000000	-0.058026	0.042120	0.000000	0.071701	-5.771822	0.000000	0.000000	0.000000	0.000000	0.000000	1
88.411963	12.533124	0.000000	-0.026955	0.031905	0.000000	0.041767	3.660588	0.000000	0.000000	0.000000	0.000000	0.000000	1
91.520955	12.533124	0.000000	-0.022463	0.059812	0.000000	0.063891	4.896642	0.000000	0.000000	0.000000	0.000000	0.000000	1
94.629947	12.533124	0.000000	-0.012157	0.061469	0.000000	0.062660	0.955804	0.000000	0.000000	0.000000	0.000000	0.000000	2
97.738939	12.533124	0.000000	0.022825	0.056418	0.000000	0.060860	-2.413478	0.000000	0.000000	0.000000	0.000000	0.000000	1
100.847931	12.533124	0.000000	-0.016610	0.033971	0.000000	0.037814	-7.242768	0.000000	0.000000	0.000000	0.000000	0.000000	1
103.956923	12.533124	0.000000	-0.012971	0.014011	0.000000	0.019093	-6.964427	0.000000	0.000000	0.000000	0.000000	0.000000	1
107.065915	12.533124	0.000000	-0.008236	0.004182	0.000000	0.009237	-4.176600	0.000000	0.000000	0.000000	0.000000	0.000000	1
110.174908	12.533124	0.000000	-0.006290	0.007465	0.000000	0.009762	-4.290663	0.000000	0.000000	0.000000	0.000000	0.000000	1
113.283900	12.533124	0.000000	-0.001528	0.006033	0.000000	0.006223	-3.540143	0.000000	0.000000	0.000000	0.000000	0.000000	1
116.392892	12.533124	0.000000	-0.000578	0.004550	0.000000	0.004587	-0.806744	0.000000	0.000000	0.000000	0.000000	0.000000	1
119.501884	12.533124	0.000000	-0.001799	0.002483	0.000000	0.003066	0.933274	0.000000	0.000000	0.000000	0.000000	0.000000	1
122.610876	12.533124	0.000000	-0.005194	0.008562	0.000000	0.010014	0.744126	0.000000	0.000000	0.000000	0.000000	0.000000	1
125.719868	12.533124	0.000000	-0.006157	0.001787	0.000000	0.006411	0.466028	0.000000	0.000000	0.000000	0.000000	0.000000	1
128.828860	12.533124	0.000000	-0.010018	0.006985	0.000000	0.012212	1.096535	0.000000	0.000000	0.000000	0.000000	0.000000	1
131.937852	12.533124	0.000000	-0.011211	0.009980	0.000000	0.015009	1.668390	0.000000	0.000000	0.000000	0.000000	0.000000	1
135.046844	12.533124	0.000000	-0.018278	0.018687	0.000000	0.026139	2.349384	0.000000	0.000000	0.000000	0.000000	0.000000	1
138.155836	12.533124	0.000000	-0.016011	0.016599	0.000000	0.023063	0.894680	0.000000	0.000000	0.000000	0.000000	0.000000	1
141.264829	12.533124	0.000000	-0.012936	0.011516	0.000000	0.017320	-0.637290	0.000000	0.000000	0.000000	0.000000	0.000000	1
144.373821	12.533124	0.000000	-0.013547	0.012298	0.000000	0.018297	-1.833036	0.000000	0.000000	0.000000	0.000000	0.000000	1
147.482813	12.533124	0.000000	-0.004512	0.003171	0.000000	0.005515	-1.704636	0.000000	0.000000	0.000000	0.000000	0.000000	1
150.591805	12.533124	0.000000	-0.004734	0.003052	0.000000	0.005632	-0.218983	0.000000	0.000000	0.000000	0.000000	0.000000	1
153.700797	12.533124	0.000000	-0.005445	0.006202	0.000000	0.008253	-0.240526	0.000000	0.000000	0.000000	0.000000	0.000000	1
156.809789	12.533124	0.000000	-0.003820	0.003958	0.000000	0.005501	-0.613680	0.000000	0.000000	0.000000	0.000000	0.000000	1
159.918781	12.533124	0.000000	-0.003879	0.003895	0.000000	0.005498	-0.540560	0.000000	0.000000	0.000000	0.000000	0.000000	1
4.469176	15.642117	0.000000	0.001286	0.002161	0.000000	0.002514	3.843531	0.000000	0.000000	0.000000	0.000000	0.000000	1
7.578168	15.642117	0.000000	0.013322	0.017425	0.000000	0.021934	1.033269	0.000000	0.000000	0.000000	0.000000	0.000000	1
10.687160	15.642117	0.000000	0.011093	0.015306	0.000000	0.018903	-1.862113	0.000000	0.000000	0.000000	0.000000	0.000000	1
13.796152	15.642117	0.000000	0.003593	0.009650	0.000000	0.010297	0.530774	0.000000	0.000000	0.000000	0.000000	0.000000	1
16.905145	15.642117	0.000000	0.003396	0.010283	0.000000	0.010829	1.901965	0.000000	0.000000	0.000000	0.000000	0.000000	1
20.014137	15.642117	0.000000	0.001788	0.007798	0.000000	0.008001	-0.116279	0.000000	0.000000	0.000000	0.000000	0.000000	1
23.123129	15.642117	0.000000	0.001729	0.007143	0.000000	0.007349	-0.864869	0.000000	0.000000	0.000000	0.000000	0.000000	1
26.232121	15.642117	0.000000	-0.001300	0.003665	0.000000	0.003889	-0.411444	0.000000	0.000000	0.000000	0.000000	0.000000	1
29.341113	15.642117	0.000000	-0.000075	0.004015	0.000000	0.004015	0.337773	0.000000	0.000000	0.000000	0.000000	0.000000	1
32.450105	15.642117	0.000000	0.001106	0.004354	0.000000	0.004492	0.642609	0.000000	0.000000	0.000000	0.000000	0.000000	1
35.559097	15.642117	0.000000	-0.000674	0.004035	0.000000	0.004091	0.832979	0.000000	0.000000	0.000000	0.000000	0.000000	1
38.668089	15.642117	0.000000	0.001882	0.009238	0.000000	0.009428	0.353975	0.000000	0.000000	0.000000	0.000000	0.000000	1
41.777081	15.642117	0.000000	0.001815	0.006861	0.000000	0.007097	-0.385384	0.000000	0.000000	0.000000	0.000000	0.000000	1
44.886073	15.642117	0.000000	0.001528	0.006427	0.000000	0.006606	0.589744	0.000000	0.000000	0.000000	0.000000	0.000000	1
47.995066	15.642117	0.000000	0.006458	0.012857	0.000000	0.014388	-0.039954	0.000000	0.000000	0.000000	0.000000	0.000000	1
51.104058	15.642117	0.000000	0.009314	0.013705	0.000000	0.016570	-3.874892	0.000000	0.000000	0.000000	0.000000	0.000000	1
54.213050	15.642117	0.000000	-0.011856	-0.016214	0.000000	0.020086	3.379132	0.000000	0.000000	0.000000	0.000000	0.000000	1
57.322042	15.642117	0.000000	-0.001271	-0.008388	0.000000	0.008484	47.398281	0.000000	0.000000	0.000000	0.000000	0.000000	1
60.431034	15.642117	0.000000	-0.241830	0.214356	0.000000	0.323156	77.559161	0.000000	0.000000	0.000000	0.000000	0.000000	2
63.540026	15.642117	0.000000	-0.312406	0.414706	0.000000	0.519210	75.002936	0.000000	0.000000	0.000000	0.000000	0.000000	1
66.649018	15.642117	0.000000	-0.472330	0.688267	0.000000	0.834750	60.211220	0.000000	0.000000	0.000000	0.000000	0.000000	1
69.758010	15.642117	0.000000	-0.612916	0.729628	0.000000	0.952902	-25.925252	0.000000	0.000000	0.000000	0.000000	0.000000	2
72.867002	15.642117	0.000000	-0.354613	0.845912	0.000000	0.917234	-139.907669	0.000000	0.000000	0.000000	0.000000	0.000000	2
75.975994	15.642117	0.000000	-0.258026	0.293931	0.000000	0.391117	-140.708530	0.000000	0.000000	0.000000	0.000000	0.000000	1
79.084987	15.642117	0.000000	-0.073120	0.100483	0.000000	0.124271	-69.047400	0.000000	0.000000	0.000000	0.000000	0.000000	1
82.193979	15.642117	0.000000	-0.048513	0.078542	0.000000	0.092317	-29.024948	0.000000	0.000000	0.000000	0.000000	0.000000	1
85.302971	15.642117	0.000000	-0.032221	0.023763	0.000000	0.040036	-6.055966	0.000000	0.000000	0.000000	0.000000	0.000000	1
88.411963	15.642117	0.000000	-0.040524	0.044100	0.000000	0.059891	8.295288	0.000000	0.000000	0.000000	0.000000	0.000000	1
91.520955	15.642117	0.000000	-0.038535	0.078009	0.000000	0.087008	4.071909	0.000000	0.000000	0.000000	0.000000	0.000000	1
94.629947	15.642117	0.000000	-0.010360	0.063153	0.000000	0.063997	-1.691197	0.000000	0.000000	0.000000	0.000000	0.000000	2
97.738939	15.642117	0.000000	0.001121	0.068177	0.000000	0.068187	-3.284789	0.000000	0.000000	0.000000	0.000000	0.000000	2
100.847931	15.642117	0.000000	0.005215	0.044877	0.000000	0.045179	-8.303534	0.000000	0.000000	0.000000	0.000000	0.000000	1
103.956923	15.642117	0.000000	-0.000832	0.019208	0.000000	0.019226	-9.611374	0.000000	0.000000	0.000000	0.000000	0.000000	1
107.065915	15.642117	0.000000	-0.000679	0.006636	0.000000	0.006671	-9.794875	0.000000	0.000000	0.000000	0.000000	0.000000	1
110.174908	15.642117	0.000000	0.017861	-0.004161	0.000000	0.018339	-8.885710	0.000000	0.000000	0.000000	0.000000	0.000000	1
113.283900	15.642117	0.000000	0.026598	-0.008742	0.000000	0.027998	-1.836770	0.000000	0.000000	0.000000	0.000000	0.000000	1
116.392892	15.642117	0.000000	-0.002272	0.008459	0.000000	0.008759	2.656835	0.000000	0.000000	0.000000	0.000000	0.000000	1
119.501884	15.642117	0.000000	-0.005870	0.010359	0.000000	0.011906	1.944220	0.000000	0.000000	0.000000	0.000000	0.000000	1
122.610876	15.642117	0.000000	-0.015647	0.015947	0.000000	0.022341	0.940507	0.000000	0.000000	0.000000	0.000000	0.000000	1