TITLE = "PIV Result  2749 "
VARIABLES = "X (mm)""Y (mm)""Z (mm)""U (m/s)""V (m/s)""W (m/s)""Speed (m/s)""Vorticity""U-std""V-std""W-std""Speed-std""Vorticity-std""Flag"
ZONE T="ZONE 2749 "
I= 51 , J= 16 , K= 1 , F=POINT
DT=(DOUBLE DOUBLE DOUBLE DOUBLE DOUBLE DOUBLE DOUBLE DOUBLE DOUBLE DOUBLE DOUBLE DOUBLE DOUBLE DOUBLE)
4.469176	3.206148	0.000000	0.001820	0.007452	0.000000	0.007671	0.394993	0.000000	0.000000	0.000000	0.000000	0.000000	1
7.578168	3.206148	0.000000	0.006566	0.005534	0.000000	0.008586	0.666826	0.000000	0.000000	0.000000	0.000000	0.000000	1
10.687160	3.206148	0.000000	0.007623	0.004818	0.000000	0.009018	2.074519	0.000000	0.000000	0.000000	0.000000	0.000000	1
13.796152	3.206148	0.000000	0.004962	0.007862	0.000000	0.009297	2.716636	0.000000	0.000000	0.000000	0.000000	0.000000	1
16.905145	3.206148	0.000000	0.004325	0.008318	0.000000	0.009375	0.691551	0.000000	0.000000	0.000000	0.000000	0.000000	1
20.014137	3.206148	0.000000	0.002768	0.006164	0.000000	0.006757	-0.987626	0.000000	0.000000	0.000000	0.000000	0.000000	1
23.123129	3.206148	0.000000	0.001641	0.003782	0.000000	0.004122	-1.111925	0.000000	0.000000	0.000000	0.000000	0.000000	1
26.232121	3.206148	0.000000	-0.000189	0.003222	0.000000	0.003228	-2.241436	0.000000	0.000000	0.000000	0.000000	0.000000	1
29.341113	3.206148	0.000000	0.001970	0.003926	0.000000	0.004392	-3.182103	0.000000	0.000000	0.000000	0.000000	0.000000	1
32.450105	3.206148	0.000000	0.002883	0.004799	0.000000	0.005599	-2.847141	0.000000	0.000000	0.000000	0.000000	0.000000	1
35.559097	3.206148	0.000000	0.000328	0.000620	0.000000	0.000702	-1.305176	0.000000	0.000000	0.000000	0.000000	0.000000	1
38.668089	3.206148	0.000000	-0.000244	0.001073	0.000000	0.001101	0.170144	0.000000	0.000000	0.000000	0.000000	0.000000	1
41.777081	3.206148	0.000000	-0.000940	0.000273	0.000000	0.000978	-0.067571	0.000000	0.000000	0.000000	0.000000	0.000000	1
44.886073	3.206148	0.000000	-0.000160	-0.001353	0.000000	0.001362	-1.312998	0.000000	0.000000	0.000000	0.000000	0.000000	1
47.995066	3.206148	0.000000	0.001058	-0.001604	0.000000	0.001922	-2.460475	0.000000	0.000000	0.000000	0.000000	0.000000	1
51.104058	3.206148	0.000000	0.003117	-0.001817	0.000000	0.003608	-1.857406	0.000000	0.000000	0.000000	0.000000	0.000000	1
54.213050	3.206148	0.000000	0.001757	-0.001353	0.000000	0.002218	-3.331656	0.000000	0.000000	0.000000	0.000000	0.000000	1
57.322042	3.206148	0.000000	0.000631	-0.000342	0.000000	0.000718	6.238982	0.000000	0.000000	0.000000	0.000000	0.000000	1
60.431034	3.206148	0.000000	0.011713	0.000176	0.000000	0.011715	94.929302	0.000000	0.000000	0.000000	0.000000	0.000000	1
63.540026	3.206148	0.000000	0.020162	-0.000173	0.000000	0.020162	232.255542	0.000000	0.000000	0.000000	0.000000	0.000000	1
66.649018	3.206148	0.000000	-0.462464	0.426087	0.000000	0.628827	166.097539	0.000000	0.000000	0.000000	0.000000	0.000000	2
69.758010	3.206148	0.000000	-0.652392	0.632262	0.000000	0.908499	-38.770368	0.000000	0.000000	0.000000	0.000000	0.000000	2
72.867002	3.206148	0.000000	-0.536351	0.438116	0.000000	0.692545	-92.136897	0.000000	0.000000	0.000000	0.000000	0.000000	2
75.975994	3.206148	0.000000	-0.199146	0.145434	0.000000	0.246597	-42.660893	0.000000	0.000000	0.000000	0.000000	0.000000	1
79.084987	3.206148	0.000000	-0.228694	0.162217	0.000000	0.280384	-32.066729	0.000000	0.000000	0.000000	0.000000	0.000000	1
82.193979	3.206148	0.000000	-0.081238	0.052814	0.000000	0.096896	-31.203796	0.000000	0.000000	0.000000	0.000000	0.000000	2
85.302971	3.206148	0.000000	-0.023664	0.016478	0.000000	0.028836	-12.959771	0.000000	0.000000	0.000000	0.000000	0.000000	1
88.411963	3.206148	0.000000	-0.010505	-0.008300	0.000000	0.013388	-2.298875	0.000000	0.000000	0.000000	0.000000	0.000000	1
91.520955	3.206148	0.000000	0.004167	0.024499	0.000000	0.024851	-1.084480	0.000000	0.000000	0.000000	0.000000	0.000000	1
94.629947	3.206148	0.000000	0.012943	-0.000093	0.000000	0.012943	-7.546160	0.000000	0.000000	0.000000	0.000000	0.000000	1
97.738939	3.206148	0.000000	0.016269	-0.004925	0.000000	0.016998	-6.541824	0.000000	0.000000	0.000000	0.000000	0.000000	1
100.847931	3.206148	0.000000	0.015170	-0.001569	0.000000	0.015251	-1.076401	0.000000	0.000000	0.000000	0.000000	0.000000	1
103.956923	3.206148	0.000000	0.006060	0.000752	0.000000	0.006106	5.416146	0.000000	0.000000	0.000000	0.000000	0.000000	1
107.065915	3.206148	0.000000	-0.003210	0.001645	0.000000	0.003607	6.081453	0.000000	0.000000	0.000000	0.000000	0.000000	1
110.174908	3.206148	0.000000	0.004673	0.002651	0.000000	0.005373	2.034082	0.000000	0.000000	0.000000	0.000000	0.000000	1
113.283900	3.206148	0.000000	-0.001729	0.002057	0.000000	0.002687	0.670614	0.000000	0.000000	0.000000	0.000000	0.000000	1
116.392892	3.206148	0.000000	0.000190	0.000548	0.000000	0.000580	2.589437	0.000000	0.000000	0.000000	0.000000	0.000000	1
119.501884	3.206148	0.000000	-0.000400	0.000362	0.000000	0.000539	4.917747	0.000000	0.000000	0.000000	0.000000	0.000000	1
122.610876	3.206148	0.000000	-0.003683	0.000301	0.000000	0.003695	5.022485	0.000000	0.000000	0.000000	0.000000	0.000000	1
125.719868	3.206148	0.000000	-0.002503	0.000956	0.000000	0.002680	2.253035	0.000000	0.000000	0.000000	0.000000	0.000000	1
128.828860	3.206148	0.000000	0.001213	0.000921	0.000000	0.001523	1.970333	0.000000	0.000000	0.000000	0.000000	0.000000	1
131.937852	3.206148	0.000000	0.001414	0.000757	0.000000	0.001604	3.429557	0.000000	0.000000	0.000000	0.000000	0.000000	1
135.046844	3.206148	0.000000	0.000917	0.004433	0.000000	0.004527	2.384475	0.000000	0.000000	0.000000	0.000000	0.000000	1
138.155836	3.206148	0.000000	-0.003493	0.006169	0.000000	0.007089	0.753109	0.000000	0.000000	0.000000	0.000000	0.000000	1
141.264829	3.206148	0.000000	-0.007609	0.008855	0.000000	0.011675	-0.266779	0.000000	0.000000	0.000000	0.000000	0.000000	1
144.373821	3.206148	0.000000	-0.008941	0.009847	0.000000	0.013301	-1.001666	0.000000	0.000000	0.000000	0.000000	0.000000	1
147.482813	3.206148	0.000000	-0.003556	0.007131	0.000000	0.007968	-0.021109	0.000000	0.000000	0.000000	0.000000	0.000000	1
150.591805	3.206148	0.000000	-0.003295	0.008209	0.000000	0.008845	0.310554	0.000000	0.000000	0.000000	0.000000	0.000000	1
153.700797	3.206148	0.000000	-0.004469	0.004664	0.000000	0.006460	-0.475507	0.000000	0.000000	0.000000	0.000000	0.000000	1
156.809789	3.206148	0.000000	-0.006171	0.005035	0.000000	0.007964	-0.538612	0.000000	0.000000	0.000000	0.000000	0.000000	1
159.918781	3.206148	0.000000	-0.006445	0.005476	0.000000	0.008457	-0.549084	0.000000	0.000000	0.000000	0.000000	0.000000	1
4.469176	6.315140	0.000000	0.001880	0.003770	0.000000	0.004213	0.587952	0.000000	0.000000	0.000000	0.000000	0.000000	1
7.578168	6.315140	0.000000	0.004023	0.005663	0.000000	0.006946	0.629404	0.000000	0.000000	0.000000	0.000000	0.000000	1
10.687160	6.315140	0.000000	0.004100	0.006149	0.000000	0.007390	1.481577	0.000000	0.000000	0.000000	0.000000	0.000000	1
13.796152	6.315140	0.000000	-0.003844	0.010739	0.000000	0.011406	1.459585	0.000000	0.000000	0.000000	0.000000	0.000000	1
16.905145	6.315140	0.000000	-0.001239	0.009735	0.000000	0.009813	-0.190468	0.000000	0.000000	0.000000	0.000000	0.000000	1
20.014137	6.315140	0.000000	0.006951	0.005286	0.000000	0.008732	-0.626595	0.000000	0.000000	0.000000	0.000000	0.000000	1
23.123129	6.315140	0.000000	0.001678	0.004828	0.000000	0.005112	-0.245177	0.000000	0.000000	0.000000	0.000000	0.000000	1
26.232121	6.315140	0.000000	0.010176	0.009022	0.000000	0.013599	-0.769206	0.000000	0.000000	0.000000	0.000000	0.000000	1
29.341113	6.315140	0.000000	0.015086	0.010692	0.000000	0.018490	-1.223849	0.000000	0.000000	0.000000	0.000000	0.000000	1
32.450105	6.315140	0.000000	0.007102	0.008687	0.000000	0.011220	-1.684996	0.000000	0.000000	0.000000	0.000000	0.000000	1
35.559097	6.315140	0.000000	-0.000822	-0.001007	0.000000	0.001300	-1.759130	0.000000	0.000000	0.000000	0.000000	0.000000	1
38.668089	6.315140	0.000000	-0.001543	-0.003198	0.000000	0.003551	-0.773080	0.000000	0.000000	0.000000	0.000000	0.000000	1
41.777081	6.315140	0.000000	-0.000588	-0.001938	0.000000	0.002025	-0.487601	0.000000	0.000000	0.000000	0.000000	0.000000	1
44.886073	6.315140	0.000000	-0.000365	-0.002412	0.000000	0.002439	-0.861470	0.000000	0.000000	0.000000	0.000000	0.000000	1
47.995066	6.315140	0.000000	0.010119	-0.007387	0.000000	0.012529	-1.357789	0.000000	0.000000	0.000000	0.000000	0.000000	1
51.104058	6.315140	0.000000	0.007598	-0.010147	0.000000	0.012677	-1.538914	0.000000	0.000000	0.000000	0.000000	0.000000	1
54.213050	6.315140	0.000000	0.003977	-0.010493	0.000000	0.011222	5.284758	0.000000	0.000000	0.000000	0.000000	0.000000	1
57.322042	6.315140	0.000000	0.019588	-0.025178	0.000000	0.031900	32.782394	0.000000	0.000000	0.000000	0.000000	0.000000	1
60.431034	6.315140	0.000000	-0.094099	-0.000113	0.000000	0.094099	137.488144	0.000000	0.000000	0.000000	0.000000	0.000000	2
63.540026	6.315140	0.000000	-0.516824	0.425541	0.000000	0.669471	212.963199	0.000000	0.000000	0.000000	0.000000	0.000000	2
66.649018	6.315140	0.000000	-0.871105	0.873880	0.000000	1.233893	88.280810	0.000000	0.000000	0.000000	0.000000	0.000000	1
69.758010	6.315140	0.000000	-0.573959	0.582860	0.000000	0.818018	-75.627314	0.000000	0.000000	0.000000	0.000000	0.000000	2
72.867002	6.315140	0.000000	-0.420310	0.243969	0.000000	0.485986	-84.816626	0.000000	0.000000	0.000000	0.000000	0.000000	1
75.975994	6.315140	0.000000	-0.256902	0.176632	0.000000	0.311765	-36.269504	0.000000	0.000000	0.000000	0.000000	0.000000	2
79.084987	6.315140	0.000000	-0.138812	0.079748	0.000000	0.160089	-32.131388	0.000000	0.000000	0.000000	0.000000	0.000000	1
82.193979	6.315140	0.000000	-0.047835	0.025880	0.000000	0.054388	-24.534392	0.000000	0.000000	0.000000	0.000000	0.000000	2
85.302971	6.315140	0.000000	-0.017025	0.000763	0.000000	0.017042	-9.872491	0.000000	0.000000	0.000000	0.000000	0.000000	1
88.411963	6.315140	0.000000	0.006771	-0.010216	0.000000	0.012256	-2.164271	0.000000	0.000000	0.000000	0.000000	0.000000	1
91.520955	6.315140	0.000000	0.010724	0.011901	0.000000	0.016019	0.451055	0.000000	0.000000	0.000000	0.000000	0.000000	1
94.629947	6.315140	0.000000	0.014661	0.000197	0.000000	0.014662	-4.887993	0.000000	0.000000	0.000000	0.000000	0.000000	1
97.738939	6.315140	0.000000	0.029639	-0.029157	0.000000	0.041576	-2.448122	0.000000	0.000000	0.000000	0.000000	0.000000	1
100.847931	6.315140	0.000000	0.039955	-0.026439	0.000000	0.047910	5.651244	0.000000	0.000000	0.000000	0.000000	0.000000	1
103.956923	6.315140	0.000000	-0.005469	0.003190	0.000000	0.006331	7.950565	0.000000	0.000000	0.000000	0.000000	0.000000	1
107.065915	6.315140	0.000000	-0.023474	0.019167	0.000000	0.030305	2.790644	0.000000	0.000000	0.000000	0.000000	0.000000	1
110.174908	6.315140	0.000000	-0.010091	0.010100	0.000000	0.014278	-1.407059	0.000000	0.000000	0.000000	0.000000	0.000000	1
113.283900	6.315140	0.000000	-0.002771	-0.006784	0.000000	0.007328	-0.584488	0.000000	0.000000	0.000000	0.000000	0.000000	1
116.392892	6.315140	0.000000	-0.004673	-0.001168	0.000000	0.004817	1.215794	0.000000	0.000000	0.000000	0.000000	0.000000	1
119.501884	6.315140	0.000000	-0.018004	-0.001259	0.000000	0.018047	2.309260	0.000000	0.000000	0.000000	0.000000	0.000000	1
122.610876	6.315140	0.000000	-0.024877	-0.001028	0.000000	0.024898	2.863792	0.000000	0.000000	0.000000	0.000000	0.000000	1
125.719868	6.315140	0.000000	-0.002953	0.000166	0.000000	0.002958	1.388494	0.000000	0.000000	0.000000	0.000000	0.000000	1
128.828860	6.315140	0.000000	-0.002380	0.000684	0.000000	0.002477	2.540960	0.000000	0.000000	0.000000	0.000000	0.000000	1
131.937852	6.315140	0.000000	-0.008156	0.007663	0.000000	0.011191	4.859270	0.000000	0.000000	0.000000	0.000000	0.000000	1
135.046844	6.315140	0.000000	-0.006496	0.009678	0.000000	0.011656	3.189877	0.000000	0.000000	0.000000	0.000000	0.000000	1
138.155836	6.315140	0.000000	-0.004032	0.006971	0.000000	0.008053	0.641599	0.000000	0.000000	0.000000	0.000000	0.000000	1
141.264829	6.315140	0.000000	-0.006868	0.006872	0.000000	0.009716	-0.438857	0.000000	0.000000	0.000000	0.000000	0.000000	1
144.373821	6.315140	0.000000	-0.006101	0.003758	0.000000	0.007165	-0.796341	0.000000	0.000000	0.000000	0.000000	0.000000	1
147.482813	6.315140	0.000000	-0.004680	0.001436	0.000000	0.004895	0.303137	0.000000	0.000000	0.000000	0.000000	0.000000	1
150.591805	6.315140	0.000000	-0.004543	0.004479	0.000000	0.006379	0.467811	0.000000	0.000000	0.000000	0.000000	0.000000	1
153.700797	6.315140	0.000000	-0.004445	0.004170	0.000000	0.006095	-0.335208	0.000000	0.000000	0.000000	0.000000	0.000000	1
156.809789	6.315140	0.000000	-0.002916	0.003794	0.000000	0.004785	0.217191	0.000000	0.000000	0.000000	0.000000	0.000000	1
159.918781	6.315140	0.000000	-0.003832	0.005805	0.000000	0.006956	0.821702	0.000000	0.000000	0.000000	0.000000	0.000000	1
4.469176	9.424132	0.000000	0.001810	0.004062	0.000000	0.004447	1.182792	0.000000	0.000000	0.000000	0.000000	0.000000	1
7.578168	9.424132	0.000000	0.003078	0.006010	0.000000	0.006753	1.267711	0.000000	0.000000	0.000000	0.000000	0.000000	1
10.687160	9.424132	0.000000	0.003474	0.006459	0.000000	0.007334	0.503797	0.000000	0.000000	0.000000	0.000000	0.000000	1
13.796152	9.424132	0.000000	-0.004195	0.009438	0.000000	0.010329	-1.240194	0.000000	0.000000	0.000000	0.000000	0.000000	1
16.905145	9.424132	0.000000	0.002263	0.007567	0.000000	0.007898	-1.486008	0.000000	0.000000	0.000000	0.000000	0.000000	1
20.014137	9.424132	0.000000	0.005162	0.006418	0.000000	0.008236	-0.235907	0.000000	0.000000	0.000000	0.000000	0.000000	1
23.123129	9.424132	0.000000	0.002052	0.009469	0.000000	0.009689	0.646714	0.000000	0.000000	0.000000	0.000000	0.000000	1
26.232121	9.424132	0.000000	0.012035	0.011230	0.000000	0.016461	0.680893	0.000000	0.000000	0.000000	0.000000	0.000000	1
29.341113	9.424132	0.000000	0.009129	0.010485	0.000000	0.013902	-0.016876	0.000000	0.000000	0.000000	0.000000	0.000000	1
32.450105	9.424132	0.000000	0.002499	0.006042	0.000000	0.006539	-0.433498	0.000000	0.000000	0.000000	0.000000	0.000000	1
35.559097	9.424132	0.000000	0.003803	0.005145	0.000000	0.006398	-0.613463	0.000000	0.000000	0.000000	0.000000	0.000000	1
38.668089	9.424132	0.000000	0.001900	-0.001505	0.000000	0.002423	-0.090117	0.000000	0.000000	0.000000	0.000000	0.000000	1
41.777081	9.424132	0.000000	0.001442	-0.001728	0.000000	0.002250	-0.389475	0.000000	0.000000	0.000000	0.000000	0.000000	1
44.886073	9.424132	0.000000	0.000839	-0.004873	0.000000	0.004944	-0.551561	0.000000	0.000000	0.000000	0.000000	0.000000	1
47.995066	9.424132	0.000000	0.001309	-0.005751	0.000000	0.005898	0.388950	0.000000	0.000000	0.000000	0.000000	0.000000	1
51.104058	9.424132	0.000000	0.003227	-0.021098	0.000000	0.021344	1.025233	0.000000	0.000000	0.000000	0.000000	0.000000	1
54.213050	9.424132	0.000000	-0.006654	-0.046005	0.000000	0.046483	11.737417	0.000000	0.000000	0.000000	0.000000	0.000000	1
57.322042	9.424132	0.000000	-0.148812	-0.027225	0.000000	0.151282	72.267276	0.000000	0.000000	0.000000	0.000000	0.000000	2
60.431034	9.424132	0.000000	-0.294642	0.133417	0.000000	0.323441	175.950026	0.000000	0.000000	0.000000	0.000000	0.000000	2
63.540026	9.424132	0.000000	-0.858099	0.850359	0.000000	1.208075	142.243950	0.000000	0.000000	0.000000	0.000000	0.000000	1
66.649018	9.424132	0.000000	-0.793365	0.862560	0.000000	1.171937	-11.550992	0.000000	0.000000	0.000000	0.000000	0.000000	1
69.758010	9.424132	0.000000	-0.533134	0.678201	0.000000	0.862664	-103.392014	0.000000	0.000000	0.000000	0.000000	0.000000	1
72.867002	9.424132	0.000000	-0.364978	0.308340	0.000000	0.477789	-76.035490	0.000000	0.000000	0.000000	0.000000	0.000000	1
75.975994	9.424132	0.000000	-0.306831	0.222245	0.000000	0.378865	-30.504726	0.000000	0.000000	0.000000	0.000000	0.000000	1
79.084987	9.424132	0.000000	-0.087304	0.107979	0.000000	0.138858	-32.078869	0.000000	0.000000	0.000000	0.000000	0.000000	1
82.193979	9.424132	0.000000	-0.019799	0.053729	0.000000	0.057261	-15.435133	0.000000	0.000000	0.000000	0.000000	0.000000	1
85.302971	9.424132	0.000000	-0.038604	0.050795	0.000000	0.063799	-6.702055	0.000000	0.000000	0.000000	0.000000	0.000000	1
88.411963	9.424132	0.000000	0.006004	-0.010444	0.000000	0.012047	-2.299286	0.000000	0.000000	0.000000	0.000000	0.000000	1
91.520955	9.424132	0.000000	0.014342	-0.005077	0.000000	0.015214	2.603981	0.000000	0.000000	0.000000	0.000000	0.000000	1
94.629947	9.424132	0.000000	0.010103	0.005761	0.000000	0.011630	-2.911499	0.000000	0.000000	0.000000	0.000000	0.000000	1
97.738939	9.424132	0.000000	0.010613	-0.016272	0.000000	0.019427	-3.405445	0.000000	0.000000	0.000000	0.000000	0.000000	1
100.847931	9.424132	0.000000	0.009402	-0.020300	0.000000	0.022372	3.076382	0.000000	0.000000	0.000000	0.000000	0.000000	1
103.956923	9.424132	0.000000	-0.022205	0.008458	0.000000	0.023761	3.400161	0.000000	0.000000	0.000000	0.000000	0.000000	1
107.065915	9.424132	0.000000	-0.015641	0.008293	0.000000	0.017704	-1.090229	0.000000	0.000000	0.000000	0.000000	0.000000	1
110.174908	9.424132	0.000000	-0.001821	0.002526	0.000000	0.003114	-1.455228	0.000000	0.000000	0.000000	0.000000	0.000000	1
113.283900	9.424132	0.000000	-0.002305	-0.001210	0.000000	0.002603	0.304300	0.000000	0.000000	0.000000	0.000000	0.000000	1
116.392892	9.424132	0.000000	-0.000869	0.003925	0.000000	0.004020	2.647395	0.000000	0.000000	0.000000	0.000000	0.000000	1
119.501884	9.424132	0.000000	-0.014096	0.003284	0.000000	0.014473	4.415079	0.000000	0.000000	0.000000	0.000000	0.000000	1
122.610876	9.424132	0.000000	-0.026280	0.010279	0.000000	0.028219	3.463560	0.000000	0.000000	0.000000	0.000000	0.000000	1
125.719868	9.424132	0.000000	-0.005390	0.009292	0.000000	0.010742	1.984515	0.000000	0.000000	0.000000	0.000000	0.000000	1
128.828860	9.424132	0.000000	-0.006667	0.004520	0.000000	0.008054	2.778509	0.000000	0.000000	0.000000	0.000000	0.000000	1
131.937852	9.424132	0.000000	-0.022837	0.014800	0.000000	0.027213	3.061242	0.000000	0.000000	0.000000	0.000000	0.000000	1
135.046844	9.424132	0.000000	-0.028476	0.018107	0.000000	0.033745	0.298986	0.000000	0.000000	0.000000	0.000000	0.000000	1
138.155836	9.424132	0.000000	-0.006147	0.004419	0.000000	0.007571	-0.346898	0.000000	0.000000	0.000000	0.000000	0.000000	1
141.264829	9.424132	0.000000	-0.004961	0.003199	0.000000	0.005903	1.563351	0.000000	0.000000	0.000000	0.000000	0.000000	1
144.373821	9.424132	0.000000	-0.005416	0.002418	0.000000	0.005932	1.378487	0.000000	0.000000	0.000000	0.000000	0.000000	1
147.482813	9.424132	0.000000	-0.006540	0.002703	0.000000	0.007076	0.517658	0.000000	0.000000	0.000000	0.000000	0.000000	1
150.591805	9.424132	0.000000	-0.005835	0.005173	0.000000	0.007798	-0.131048	0.000000	0.000000	0.000000	0.000000	0.000000	1
153.700797	9.424132	0.000000	-0.004316	0.003428	0.000000	0.005512	-0.324702	0.000000	0.000000	0.000000	0.000000	0.000000	1
156.809789	9.424132	0.000000	-0.001941	0.003377	0.000000	0.003895	0.913026	0.000000	0.000000	0.000000	0.000000	0.000000	1
159.918781	9.424132	0.000000	-0.007419	0.012387	0.000000	0.014439	1.845374	0.000000	0.000000	0.000000	0.000000	0.000000	1
4.469176	12.533124	0.000000	-0.001141	0.005830	0.000000	0.005941	0.727868	0.000000	0.000000	0.000000	0.000000	0.000000	1
7.578168	12.533124	0.000000	-0.001601	0.006105	0.000000	0.006311	1.377150	0.000000	0.000000	0.000000	0.000000	0.000000	1
10.687160	12.533124	0.000000	0.005284	0.017101	0.000000	0.017899	0.403309	0.000000	0.000000	0.000000	0.000000	0.000000	1
13.796152	12.533124	0.000000	0.005372	0.012663	0.000000	0.013755	-1.652146	0.000000	0.000000	0.000000	0.000000	0.000000	1
16.905145	12.533124	0.000000	0.004887	0.006196	0.000000	0.007892	-0.663872	0.000000	0.000000	0.000000	0.000000	0.000000	1
20.014137	12.533124	0.000000	0.004658	0.006372	0.000000	0.007893	0.841243	0.000000	0.000000	0.000000	0.000000	0.000000	1
23.123129	12.533124	0.000000	0.005325	0.006618	0.000000	0.008494	1.368575	0.000000	0.000000	0.000000	0.000000	0.000000	1
26.232121	12.533124	0.000000	0.010304	0.014225	0.000000	0.017564	0.991827	0.000000	0.000000	0.000000	0.000000	0.000000	1
29.341113	12.533124	0.000000	0.009051	0.013526	0.000000	0.016275	-0.669257	0.000000	0.000000	0.000000	0.000000	0.000000	1
32.450105	12.533124	0.000000	-0.000065	0.005409	0.000000	0.005409	-0.597866	0.000000	0.000000	0.000000	0.000000	0.000000	1
35.559097	12.533124	0.000000	0.001092	0.006671	0.000000	0.006760	0.762015	0.000000	0.000000	0.000000	0.000000	0.000000	1
38.668089	12.533124	0.000000	-0.003550	0.011786	0.000000	0.012309	0.687269	0.000000	0.000000	0.000000	0.000000	0.000000	1
41.777081	12.533124	0.000000	-0.005474	0.012121	0.000000	0.013300	-1.160441	0.000000	0.000000	0.000000	0.000000	0.000000	1
44.886073	12.533124	0.000000	-0.000434	-0.003800	0.000000	0.003825	-0.709613	0.000000	0.000000	0.000000	0.000000	0.000000	1
47.995066	12.533124	0.000000	-0.000960	-0.004206	0.000000	0.004314	0.335796	0.000000	0.000000	0.000000	0.000000	0.000000	1
51.104058	12.533124	0.000000	-0.025854	-0.009619	0.000000	0.027585	0.849659	0.000000	0.000000	0.000000	0.000000	0.000000	1
54.213050	12.533124	0.000000	-0.028416	-0.005469	0.000000	0.028938	0.535507	0.000000	0.000000	0.000000	0.000000	0.000000	2
57.322042	12.533124	0.000000	-0.162871	0.028901	0.000000	0.165416	63.448081	0.000000	0.000000	0.000000	0.000000	0.000000	2
60.431034	12.533124	0.000000	-0.610715	0.508813	0.000000	0.794898	127.184868	0.000000	0.000000	0.000000	0.000000	0.000000	2
63.540026	12.533124	0.000000	-0.714055	0.786322	0.000000	1.062157	54.444134	0.000000	0.000000	0.000000	0.000000	0.000000	1
66.649018	12.533124	0.000000	-0.836609	0.837843	0.000000	1.184016	-71.075931	0.000000	0.000000	0.000000	0.000000	0.000000	1
69.758010	12.533124	0.000000	-0.508448	0.623294	0.000000	0.804373	-123.604851	0.000000	0.000000	0.000000	0.000000	0.000000	1
72.867002	12.533124	0.000000	-0.346537	0.243919	0.000000	0.423773	-73.419907	0.000000	0.000000	0.000000	0.000000	0.000000	1
75.975994	12.533124	0.000000	-0.316548	0.203691	0.000000	0.376421	-29.737591	0.000000	0.000000	0.000000	0.000000	0.000000	1
79.084987	12.533124	0.000000	-0.033226	0.110216	0.000000	0.115116	-26.299857	0.000000	0.000000	0.000000	0.000000	0.000000	1
82.193979	12.533124	0.000000	-0.028013	0.064957	0.000000	0.070740	-12.387200	0.000000	0.000000	0.000000	0.000000	0.000000	1
85.302971	12.533124	0.000000	-0.033566	0.048355	0.000000	0.058863	-8.347807	0.000000	0.000000	0.000000	0.000000	0.000000	1
88.411963	12.533124	0.000000	-0.015779	0.026897	0.000000	0.031183	-3.985998	0.000000	0.000000	0.000000	0.000000	0.000000	1
91.520955	12.533124	0.000000	0.008568	0.027977	0.000000	0.029260	1.857438	0.000000	0.000000	0.000000	0.000000	0.000000	1
94.629947	12.533124	0.000000	0.034946	0.042265	0.000000	0.054841	0.097400	0.000000	0.000000	0.000000	0.000000	0.000000	1
97.738939	12.533124	0.000000	0.039656	0.067443	0.000000	0.078238	-4.950532	0.000000	0.000000	0.000000	0.000000	0.000000	1
100.847931	12.533124	0.000000	0.016337	0.053026	0.000000	0.055486	-7.998573	0.000000	0.000000	0.000000	0.000000	0.000000	1
103.956923	12.533124	0.000000	-0.014576	0.015827	0.000000	0.021516	-5.667573	0.000000	0.000000	0.000000	0.000000	0.000000	1
107.065915	12.533124	0.000000	-0.005559	0.010884	0.000000	0.012221	-1.640250	0.000000	0.000000	0.000000	0.000000	0.000000	1
110.174908	12.533124	0.000000	-0.009120	0.021356	0.000000	0.023222	1.501166	0.000000	0.000000	0.000000	0.000000	0.000000	1
113.283900	12.533124	0.000000	-0.012903	0.029371	0.000000	0.032080	2.708662	0.000000	0.000000	0.000000	0.000000	0.000000	1
116.392892	12.533124	0.000000	-0.011297	0.011479	0.000000	0.016106	4.223827	0.000000	0.000000	0.000000	0.000000	0.000000	1
119.501884	12.533124	0.000000	-0.045540	0.029786	0.000000	0.054416	4.133304	0.000000	0.000000	0.000000	0.000000	0.000000	1
122.610876	12.533124	0.000000	-0.048406	0.023215	0.000000	0.053685	0.707806	0.000000	0.000000	0.000000	0.000000	0.000000	1
125.719868	12.533124	0.000000	-0.019670	0.011179	0.000000	0.022625	0.579876	0.000000	0.000000	0.000000	0.000000	0.000000	1
128.828860	12.533124	0.000000	-0.016081	0.011718	0.000000	0.019897	0.647956	0.000000	0.000000	0.000000	0.000000	0.000000	1
131.937852	12.533124	0.000000	-0.016265	0.009547	0.000000	0.018860	-1.421417	0.000000	0.000000	0.000000	0.000000	0.000000	1
135.046844	12.533124	0.000000	-0.018228	0.010038	0.000000	0.020809	-2.168207	0.000000	0.000000	0.000000	0.000000	0.000000	1
138.155836	12.533124	0.000000	-0.007346	0.003547	0.000000	0.008158	1.101353	0.000000	0.000000	0.000000	0.000000	0.000000	1
141.264829	12.533124	0.000000	-0.015498	0.007038	0.000000	0.017022	3.788998	0.000000	0.000000	0.000000	0.000000	0.000000	1
144.373821	12.533124	0.000000	-0.025041	0.010132	0.000000	0.027013	1.527559	0.000000	0.000000	0.000000	0.000000	0.000000	1
147.482813	12.533124	0.000000	-0.003867	0.002057	0.000000	0.004380	-0.313335	0.000000	0.000000	0.000000	0.000000	0.000000	1
150.591805	12.533124	0.000000	-0.002880	0.001126	0.000000	0.003092	-0.332534	0.000000	0.000000	0.000000	0.000000	0.000000	1
153.700797	12.533124	0.000000	-0.003324	-0.000126	0.000000	0.003326	0.055595	0.000000	0.000000	0.000000	0.000000	0.000000	1
156.809789	12.533124	0.000000	-0.002058	0.002093	0.000000	0.002935	0.928232	0.000000	0.000000	0.000000	0.000000	0.000000	1
159.918781	12.533124	0.000000	-0.002454	0.007247	0.000000	0.007651	1.295282	0.000000	0.000000	0.000000	0.000000	0.000000	1
4.469176	15.642117	0.000000	0.000300	0.002843	0.000000	0.002859	-1.161491	0.000000	0.000000	0.000000	0.000000	0.000000	1
7.578168	15.642117	0.000000	0.003417	0.008225	0.000000	0.008907	0.097986	0.000000	0.000000	0.000000	0.000000	0.000000	1
10.687160	15.642117	0.000000	0.003869	0.011717	0.000000	0.012339	0.683032	0.000000	0.000000	0.000000	0.000000	0.000000	1
13.796152	15.642117	0.000000	0.003267	0.010302	0.000000	0.010807	-0.229110	0.000000	0.000000	0.000000	0.000000	0.000000	1
16.905145	15.642117	0.000000	0.001972	0.006355	0.000000	0.006654	0.714071	0.000000	0.000000	0.000000	0.000000	0.000000	1
20.014137	15.642117	0.000000	-0.000233	0.010878	0.000000	0.010881	1.478544	0.000000	0.000000	0.000000	0.000000	0.000000	1
23.123129	15.642117	0.000000	0.000604	0.012005	0.000000	0.012020	1.697568	0.000000	0.000000	0.000000	0.000000	0.000000	1
26.232121	15.642117	0.000000	0.010567	0.014640	0.000000	0.018055	2.796619	0.000000	0.000000	0.000000	0.000000	0.000000	1
29.341113	15.642117	0.000000	0.007304	0.015631	0.000000	0.017253	1.334401	0.000000	0.000000	0.000000	0.000000	0.000000	1
32.450105	15.642117	0.000000	-0.001179	0.012017	0.000000	0.012075	-0.603627	0.000000	0.000000	0.000000	0.000000	0.000000	1
35.559097	15.642117	0.000000	0.001181	0.008009	0.000000	0.008096	1.491599	0.000000	0.000000	0.000000	0.000000	0.000000	1
38.668089	15.642117	0.000000	0.001772	0.016715	0.000000	0.016808	0.581225	0.000000	0.000000	0.000000	0.000000	0.000000	1
41.777081	15.642117	0.000000	0.000461	0.017218	0.000000	0.017224	-1.759394	0.000000	0.000000	0.000000	0.000000	0.000000	1
44.886073	15.642117	0.000000	-0.012283	0.007182	0.000000	0.014229	2.756201	0.000000	0.000000	0.000000	0.000000	0.000000	1
47.995066	15.642117	0.000000	-0.007624	0.000090	0.000000	0.007624	7.520580	0.000000	0.000000	0.000000	0.000000	0.000000	1
51.104058	15.642117	0.000000	-0.014235	-0.005052	0.000000	0.015105	10.912654	0.000000	0.000000	0.000000	0.000000	0.000000	1
54.213050	15.642117	0.000000	-0.012065	0.014733	0.000000	0.019043	8.862975	0.000000	0.000000	0.000000	0.000000	0.000000	1
57.322042	15.642117	0.000000	-0.045159	0.012722	0.000000	0.046917	45.568049	0.000000	0.000000	0.000000	0.000000	0.000000	2
60.431034	15.642117	0.000000	-0.500510	0.380855	0.000000	0.628937	72.997342	0.000000	0.000000	0.000000	0.000000	0.000000	2
63.540026	15.642117	0.000000	-0.613631	0.720023	0.000000	0.946032	17.929426	0.000000	0.000000	0.000000	0.000000	0.000000	1
66.649018	15.642117	0.000000	-0.536104	0.888116	0.000000	1.037380	-94.969164	0.000000	0.000000	0.000000	0.000000	0.000000	2
69.758010	15.642117	0.000000	-0.329489	0.413069	0.000000	0.528384	-123.840389	0.000000	0.000000	0.000000	0.000000	0.000000	1
72.867002	15.642117	0.000000	-0.325482	0.259929	0.000000	0.416536	-54.396131	0.000000	0.000000	0.000000	0.000000	0.000000	1
75.975994	15.642117	0.000000	-0.278723	0.192875	0.000000	0.338951	-24.926546	0.000000	0.000000	0.000000	0.000000	0.000000	1
79.084987	15.642117	0.000000	-0.064951	0.106126	0.000000	0.124424	-9.923374	0.000000	0.000000	0.000000	0.000000	0.000000	2
82.193979	15.642117	0.000000	-0.014872	0.062471	0.000000	0.064217	-1.593026	0.000000	0.000000	0.000000	0.000000	0.000000	1
85.302971	15.642117	0.000000	-0.013482	0.036269	0.000000	0.038693	-5.620951	0.000000	0.000000	0.000000	0.000000	0.000000	1
88.411963	15.642117	0.000000	-0.008812	0.035493	0.000000	0.036571	-5.765057	0.000000	0.000000	0.000000	0.000000	0.000000	1
91.520955	15.642117	0.000000	0.014657	0.029559	0.000000	0.032994	-0.930321	0.000000	0.000000	0.000000	0.000000	0.000000	1
94.629947	15.642117	0.000000	0.046100	0.056560	0.000000	0.072967	3.086887	0.000000	0.000000	0.000000	0.000000	0.000000	1
97.738939	15.642117	0.000000	0.046231	0.072172	0.000000	0.085709	-1.496496	0.000000	0.000000	0.000000	0.000000	0.000000	1
100.847931	15.642117	0.000000	0.025174	0.060974	0.000000	0.065967	-7.760676	0.000000	0.000000	0.000000	0.000000	0.000000	1
103.956923	15.642117	0.000000	0.004731	0.045831	0.000000	0.046075	-6.492275	0.000000	0.000000	0.000000	0.000000	0.000000	2
107.065915	15.642117	0.000000	-0.007184	0.053802	0.000000	0.054279	-1.865214	0.000000	0.000000	0.000000	0.000000	0.000000	1
110.174908	15.642117	0.000000	0.001453	0.047032	0.000000	0.047055	-5.336053	0.000000	0.000000	0.000000	0.000000	0.000000	1
113.283900	15.642117	0.000000	-0.025599	0.055379	0.000000	0.061009	-6.800562	0.000000	0.000000	0.000000	0.000000	0.000000	1
116.392892	15.642117	0.000000	-0.022675	0.067636	0.000000	0.071336	-4.292949	0.000000	0.000000	0.000000	0.000000	0.000000	2
119.501884	15.642117	0.000000	-0.055540	0.046757	0.000000	0.072601	-8.935500	0.000000	0.000000	0.000000	0.000000	0.000000	1