TITLE = "PIV Result  3027 "
VARIABLES = "X (mm)""Y (mm)""Z (mm)""U (m/s)""V (m/s)""W (m/s)""Speed (m/s)""Vorticity""U-std""V-std""W-std""Speed-std""Vorticity-std""Flag"
ZONE T="ZONE 3027 "
I= 51 , J= 16 , K= 1 , F=POINT
DT=(DOUBLE DOUBLE DOUBLE DOUBLE DOUBLE DOUBLE DOUBLE DOUBLE DOUBLE DOUBLE DOUBLE DOUBLE DOUBLE DOUBLE)
4.469176	3.206148	0.000000	0.005943	0.010337	0.000000	0.011924	0.600768	0.000000	0.000000	0.000000	0.000000	0.000000	1
7.578168	3.206148	0.000000	0.002841	0.005422	0.000000	0.006121	0.626647	0.000000	0.000000	0.000000	0.000000	0.000000	1
10.687160	3.206148	0.000000	0.002441	0.005204	0.000000	0.005748	1.083228	0.000000	0.000000	0.000000	0.000000	0.000000	1
13.796152	3.206148	0.000000	0.006280	0.009958	0.000000	0.011773	0.351095	0.000000	0.000000	0.000000	0.000000	0.000000	1
16.905145	3.206148	0.000000	0.005524	0.007085	0.000000	0.008984	-0.807172	0.000000	0.000000	0.000000	0.000000	0.000000	1
20.014137	3.206148	0.000000	0.002246	0.004325	0.000000	0.004873	0.433640	0.000000	0.000000	0.000000	0.000000	0.000000	1
23.123129	3.206148	0.000000	0.002404	0.004471	0.000000	0.005076	0.678296	0.000000	0.000000	0.000000	0.000000	0.000000	1
26.232121	3.206148	0.000000	0.002514	0.005666	0.000000	0.006198	0.590941	0.000000	0.000000	0.000000	0.000000	0.000000	1
29.341113	3.206148	0.000000	0.005754	0.009052	0.000000	0.010726	2.255663	0.000000	0.000000	0.000000	0.000000	0.000000	1
32.450105	3.206148	0.000000	0.006554	0.014404	0.000000	0.015825	0.158002	0.000000	0.000000	0.000000	0.000000	0.000000	1
35.559097	3.206148	0.000000	0.002959	0.000307	0.000000	0.002975	-2.441870	0.000000	0.000000	0.000000	0.000000	0.000000	1
38.668089	3.206148	0.000000	0.000207	0.000781	0.000000	0.000808	-1.552630	0.000000	0.000000	0.000000	0.000000	0.000000	1
41.777081	3.206148	0.000000	-0.000255	0.000519	0.000000	0.000578	-1.453907	0.000000	0.000000	0.000000	0.000000	0.000000	1
44.886073	3.206148	0.000000	0.001200	-0.000412	0.000000	0.001269	-2.222033	0.000000	0.000000	0.000000	0.000000	0.000000	1
47.995066	3.206148	0.000000	-0.000176	-0.000074	0.000000	0.000190	-4.433666	0.000000	0.000000	0.000000	0.000000	0.000000	1
51.104058	3.206148	0.000000	0.001277	-0.000048	0.000000	0.001278	-11.034918	0.000000	0.000000	0.000000	0.000000	0.000000	1
54.213050	3.206148	0.000000	-0.001105	-0.001858	0.000000	0.002162	-12.280953	0.000000	0.000000	0.000000	0.000000	0.000000	1
57.322042	3.206148	0.000000	0.014473	-0.001137	0.000000	0.014518	-7.747207	0.000000	0.000000	0.000000	0.000000	0.000000	1
60.431034	3.206148	0.000000	0.018889	0.001251	0.000000	0.018930	-6.988151	0.000000	0.000000	0.000000	0.000000	0.000000	1
63.540026	3.206148	0.000000	-0.002017	0.000578	0.000000	0.002098	-1.894036	0.000000	0.000000	0.000000	0.000000	0.000000	1
66.649018	3.206148	0.000000	-0.000923	0.000349	0.000000	0.000987	0.986005	0.000000	0.000000	0.000000	0.000000	0.000000	1
69.758010	3.206148	0.000000	-0.010946	-0.007775	0.000000	0.013426	-2.709218	0.000000	0.000000	0.000000	0.000000	0.000000	1
72.867002	3.206148	0.000000	0.001138	-0.014526	0.000000	0.014571	-0.785353	0.000000	0.000000	0.000000	0.000000	0.000000	2
75.975994	3.206148	0.000000	0.036310	-0.011898	0.000000	0.038209	36.717979	0.000000	0.000000	0.000000	0.000000	0.000000	2
79.084987	3.206148	0.000000	0.053754	0.181290	0.000000	0.189091	62.548430	0.000000	0.000000	0.000000	0.000000	0.000000	2
82.193979	3.206148	0.000000	0.168599	0.402673	0.000000	0.436545	41.224614	0.000000	0.000000	0.000000	0.000000	0.000000	2
85.302971	3.206148	0.000000	0.210298	0.473569	0.000000	0.518163	49.504434	0.000000	0.000000	0.000000	0.000000	0.000000	1
88.411963	3.206148	0.000000	0.529151	0.679448	0.000000	0.861191	25.284057	0.000000	0.000000	0.000000	0.000000	0.000000	1
91.520955	3.206148	0.000000	0.518589	0.510515	0.000000	0.727709	-108.197244	0.000000	0.000000	0.000000	0.000000	0.000000	2
94.629947	3.206148	0.000000	0.383817	0.283582	0.000000	0.477215	-166.840888	0.000000	0.000000	0.000000	0.000000	0.000000	2
97.738939	3.206148	0.000000	0.251165	0.128330	0.000000	0.282050	-133.418104	0.000000	0.000000	0.000000	0.000000	0.000000	2
100.847931	3.206148	0.000000	0.055212	0.000885	0.000000	0.055219	-81.727911	0.000000	0.000000	0.000000	0.000000	0.000000	2
103.956923	3.206148	0.000000	0.000388	-0.000494	0.000000	0.000629	-16.852354	0.000000	0.000000	0.000000	0.000000	0.000000	1
107.065915	3.206148	0.000000	-0.005101	-0.000139	0.000000	0.005103	2.839729	0.000000	0.000000	0.000000	0.000000	0.000000	1
110.174908	3.206148	0.000000	-0.001298	0.002940	0.000000	0.003214	3.778473	0.000000	0.000000	0.000000	0.000000	0.000000	1
113.283900	3.206148	0.000000	-0.008905	0.003109	0.000000	0.009433	2.758740	0.000000	0.000000	0.000000	0.000000	0.000000	1
116.392892	3.206148	0.000000	-0.005562	0.000579	0.000000	0.005592	3.343654	0.000000	0.000000	0.000000	0.000000	0.000000	1
119.501884	3.206148	0.000000	-0.000250	-0.000121	0.000000	0.000278	1.915368	0.000000	0.000000	0.000000	0.000000	0.000000	1
122.610876	3.206148	0.000000	-0.000654	-0.000842	0.000000	0.001066	0.933337	0.000000	0.000000	0.000000	0.000000	0.000000	1
125.719868	3.206148	0.000000	0.000159	-0.000613	0.000000	0.000634	0.910626	0.000000	0.000000	0.000000	0.000000	0.000000	1
128.828860	3.206148	0.000000	0.000841	-0.000215	0.000000	0.000868	1.571419	0.000000	0.000000	0.000000	0.000000	0.000000	1
131.937852	3.206148	0.000000	-0.000012	0.000153	0.000000	0.000154	2.127465	0.000000	0.000000	0.000000	0.000000	0.000000	1
135.046844	3.206148	0.000000	-0.004243	0.006449	0.000000	0.007719	0.523097	0.000000	0.000000	0.000000	0.000000	0.000000	1
138.155836	3.206148	0.000000	-0.005477	0.007527	0.000000	0.009309	-0.101112	0.000000	0.000000	0.000000	0.000000	0.000000	1
141.264829	3.206148	0.000000	-0.005024	0.008128	0.000000	0.009555	-0.174138	0.000000	0.000000	0.000000	0.000000	0.000000	1
144.373821	3.206148	0.000000	-0.003912	0.006290	0.000000	0.007407	-0.656191	0.000000	0.000000	0.000000	0.000000	0.000000	1
147.482813	3.206148	0.000000	-0.000960	0.003836	0.000000	0.003954	0.621735	0.000000	0.000000	0.000000	0.000000	0.000000	1
150.591805	3.206148	0.000000	-0.001216	0.005308	0.000000	0.005445	1.456634	0.000000	0.000000	0.000000	0.000000	0.000000	1
153.700797	3.206148	0.000000	-0.007900	0.006564	0.000000	0.010271	-0.162176	0.000000	0.000000	0.000000	0.000000	0.000000	1
156.809789	3.206148	0.000000	-0.001902	0.002094	0.000000	0.002829	-0.639504	0.000000	0.000000	0.000000	0.000000	0.000000	1
159.918781	3.206148	0.000000	-0.001286	0.002164	0.000000	0.002517	0.273638	0.000000	0.000000	0.000000	0.000000	0.000000	1
4.469176	6.315140	0.000000	-0.001827	0.004807	0.000000	0.005143	-0.025672	0.000000	0.000000	0.000000	0.000000	0.000000	1
7.578168	6.315140	0.000000	0.000124	0.002971	0.000000	0.002973	0.138129	0.000000	0.000000	0.000000	0.000000	0.000000	1
10.687160	6.315140	0.000000	0.001904	0.003992	0.000000	0.004422	0.515369	0.000000	0.000000	0.000000	0.000000	0.000000	1
13.796152	6.315140	0.000000	0.006500	0.008334	0.000000	0.010569	-0.088409	0.000000	0.000000	0.000000	0.000000	0.000000	1
16.905145	6.315140	0.000000	0.005954	0.006809	0.000000	0.009045	-0.907436	0.000000	0.000000	0.000000	0.000000	0.000000	1
20.014137	6.315140	0.000000	0.001559	0.004323	0.000000	0.004596	-0.396363	0.000000	0.000000	0.000000	0.000000	0.000000	1
23.123129	6.315140	0.000000	-0.000921	0.010550	0.000000	0.010590	-1.006236	0.000000	0.000000	0.000000	0.000000	0.000000	1
26.232121	6.315140	0.000000	0.001168	0.002736	0.000000	0.002975	-0.618827	0.000000	0.000000	0.000000	0.000000	0.000000	1
29.341113	6.315140	0.000000	0.002809	0.004357	0.000000	0.005184	1.842504	0.000000	0.000000	0.000000	0.000000	0.000000	1
32.450105	6.315140	0.000000	0.006200	0.014461	0.000000	0.015734	0.992390	0.000000	0.000000	0.000000	0.000000	0.000000	1
35.559097	6.315140	0.000000	0.005861	0.014318	0.000000	0.015471	-1.206785	0.000000	0.000000	0.000000	0.000000	0.000000	1
38.668089	6.315140	0.000000	0.002047	0.005007	0.000000	0.005409	-1.379649	0.000000	0.000000	0.000000	0.000000	0.000000	1
41.777081	6.315140	0.000000	0.002532	0.004164	0.000000	0.004874	-2.225753	0.000000	0.000000	0.000000	0.000000	0.000000	1
44.886073	6.315140	0.000000	0.006589	0.000921	0.000000	0.006654	-3.226263	0.000000	0.000000	0.000000	0.000000	0.000000	1
47.995066	6.315140	0.000000	0.012250	0.003115	0.000000	0.012640	-1.958109	0.000000	0.000000	0.000000	0.000000	0.000000	1
51.104058	6.315140	0.000000	0.046940	0.021323	0.000000	0.051556	-3.492359	0.000000	0.000000	0.000000	0.000000	0.000000	1
54.213050	6.315140	0.000000	0.048126	0.020650	0.000000	0.052369	-1.273641	0.000000	0.000000	0.000000	0.000000	0.000000	1
57.322042	6.315140	0.000000	0.038623	0.037960	0.000000	0.054155	-0.133277	0.000000	0.000000	0.000000	0.000000	0.000000	1
60.431034	6.315140	0.000000	0.039203	0.039042	0.000000	0.055328	-6.928339	0.000000	0.000000	0.000000	0.000000	0.000000	1
63.540026	6.315140	0.000000	-0.014439	0.001697	0.000000	0.014538	-4.240639	0.000000	0.000000	0.000000	0.000000	0.000000	1
66.649018	6.315140	0.000000	-0.012876	-0.000092	0.000000	0.012876	-0.280765	0.000000	0.000000	0.000000	0.000000	0.000000	1
69.758010	6.315140	0.000000	-0.004205	-0.007273	0.000000	0.008401	-1.948354	0.000000	0.000000	0.000000	0.000000	0.000000	1
72.867002	6.315140	0.000000	0.009248	-0.009269	0.000000	0.013094	1.263268	0.000000	0.000000	0.000000	0.000000	0.000000	1
75.975994	6.315140	0.000000	0.006482	-0.019784	0.000000	0.020818	38.349317	0.000000	0.000000	0.000000	0.000000	0.000000	1
79.084987	6.315140	0.000000	0.116418	0.262658	0.000000	0.287302	62.124778	0.000000	0.000000	0.000000	0.000000	0.000000	2
82.193979	6.315140	0.000000	0.126901	0.397299	0.000000	0.417073	39.680363	0.000000	0.000000	0.000000	0.000000	0.000000	1
85.302971	6.315140	0.000000	0.291981	0.543997	0.000000	0.617402	53.352470	0.000000	0.000000	0.000000	0.000000	0.000000	1
88.411963	6.315140	0.000000	0.508028	0.836705	0.000000	0.978860	57.323875	0.000000	0.000000	0.000000	0.000000	0.000000	1
91.520955	6.315140	0.000000	0.637101	0.979433	0.000000	1.168412	-64.955403	0.000000	0.000000	0.000000	0.000000	0.000000	1
94.629947	6.315140	0.000000	0.622467	0.341581	0.000000	0.710031	-148.527273	0.000000	0.000000	0.000000	0.000000	0.000000	1
97.738939	6.315140	0.000000	0.594151	0.225584	0.000000	0.635534	-112.102622	0.000000	0.000000	0.000000	0.000000	0.000000	1
100.847931	6.315140	0.000000	0.196574	0.031077	0.000000	0.199015	-73.494994	0.000000	0.000000	0.000000	0.000000	0.000000	2
103.956923	6.315140	0.000000	0.030653	-0.005985	0.000000	0.031232	-42.756058	0.000000	0.000000	0.000000	0.000000	0.000000	2
107.065915	6.315140	0.000000	-0.023854	0.005663	0.000000	0.024517	-17.414542	0.000000	0.000000	0.000000	0.000000	0.000000	1
110.174908	6.315140	0.000000	-0.016665	0.003289	0.000000	0.016986	-2.399519	0.000000	0.000000	0.000000	0.000000	0.000000	1
113.283900	6.315140	0.000000	-0.016320	-0.007496	0.000000	0.017959	-0.346068	0.000000	0.000000	0.000000	0.000000	0.000000	1
116.392892	6.315140	0.000000	-0.020849	-0.005525	0.000000	0.021568	0.290008	0.000000	0.000000	0.000000	0.000000	0.000000	1
119.501884	6.315140	0.000000	-0.002199	-0.002620	0.000000	0.003421	0.206704	0.000000	0.000000	0.000000	0.000000	0.000000	1
122.610876	6.315140	0.000000	-0.004667	-0.003481	0.000000	0.005822	0.385000	0.000000	0.000000	0.000000	0.000000	0.000000	1
125.719868	6.315140	0.000000	-0.000629	-0.001284	0.000000	0.001430	0.679932	0.000000	0.000000	0.000000	0.000000	0.000000	1
128.828860	6.315140	0.000000	-0.000704	0.000082	0.000000	0.000709	2.004663	0.000000	0.000000	0.000000	0.000000	0.000000	1
131.937852	6.315140	0.000000	-0.003388	0.010238	0.000000	0.010784	2.772521	0.000000	0.000000	0.000000	0.000000	0.000000	1
135.046844	6.315140	0.000000	-0.001692	0.014130	0.000000	0.014231	0.173811	0.000000	0.000000	0.000000	0.000000	0.000000	1
138.155836	6.315140	0.000000	-0.006004	0.010568	0.000000	0.012154	-0.439360	0.000000	0.000000	0.000000	0.000000	0.000000	1
141.264829	6.315140	0.000000	-0.006239	0.011475	0.000000	0.013061	0.538789	0.000000	0.000000	0.000000	0.000000	0.000000	1
144.373821	6.315140	0.000000	-0.002317	0.008277	0.000000	0.008596	-0.041053	0.000000	0.000000	0.000000	0.000000	0.000000	1
147.482813	6.315140	0.000000	-0.004120	0.006421	0.000000	0.007629	0.413549	0.000000	0.000000	0.000000	0.000000	0.000000	1
150.591805	6.315140	0.000000	-0.006548	0.006934	0.000000	0.009537	0.905955	0.000000	0.000000	0.000000	0.000000	0.000000	1
153.700797	6.315140	0.000000	-0.008115	0.007768	0.000000	0.011234	-0.519717	0.000000	0.000000	0.000000	0.000000	0.000000	1
156.809789	6.315140	0.000000	-0.003115	0.001155	0.000000	0.003322	-0.845381	0.000000	0.000000	0.000000	0.000000	0.000000	1
159.918781	6.315140	0.000000	-0.002364	0.000496	0.000000	0.002415	0.090769	0.000000	0.000000	0.000000	0.000000	0.000000	1
4.469176	9.424132	0.000000	-0.000279	0.004691	0.000000	0.004700	-0.713143	0.000000	0.000000	0.000000	0.000000	0.000000	1
7.578168	9.424132	0.000000	0.000721	0.004618	0.000000	0.004674	-0.083216	0.000000	0.000000	0.000000	0.000000	0.000000	1
10.687160	9.424132	0.000000	0.006274	0.008261	0.000000	0.010373	0.526196	0.000000	0.000000	0.000000	0.000000	0.000000	1
13.796152	9.424132	0.000000	0.008054	0.009492	0.000000	0.012449	-0.044068	0.000000	0.000000	0.000000	0.000000	0.000000	1
16.905145	9.424132	0.000000	0.007696	0.008098	0.000000	0.011171	-0.511793	0.000000	0.000000	0.000000	0.000000	0.000000	1
20.014137	9.424132	0.000000	0.008237	0.012687	0.000000	0.015127	-0.836301	0.000000	0.000000	0.000000	0.000000	0.000000	1
23.123129	9.424132	0.000000	0.007311	0.012436	0.000000	0.014426	-1.927325	0.000000	0.000000	0.000000	0.000000	0.000000	1
26.232121	9.424132	0.000000	0.001486	0.004272	0.000000	0.004523	-1.826813	0.000000	0.000000	0.000000	0.000000	0.000000	1
29.341113	9.424132	0.000000	0.003926	0.005874	0.000000	0.007065	-0.779227	0.000000	0.000000	0.000000	0.000000	0.000000	1
32.450105	9.424132	0.000000	0.002237	0.008910	0.000000	0.009187	-0.135135	0.000000	0.000000	0.000000	0.000000	0.000000	1
35.559097	9.424132	0.000000	0.001082	0.007042	0.000000	0.007124	-0.395343	0.000000	0.000000	0.000000	0.000000	0.000000	1
38.668089	9.424132	0.000000	0.001914	0.005062	0.000000	0.005411	-0.477112	0.000000	0.000000	0.000000	0.000000	0.000000	1
41.777081	9.424132	0.000000	0.017572	0.012184	0.000000	0.021383	0.545795	0.000000	0.000000	0.000000	0.000000	0.000000	1
44.886073	9.424132	0.000000	0.021979	0.017208	0.000000	0.027914	2.211400	0.000000	0.000000	0.000000	0.000000	0.000000	1
47.995066	9.424132	0.000000	0.015049	0.009243	0.000000	0.017661	7.086056	0.000000	0.000000	0.000000	0.000000	0.000000	1
51.104058	9.424132	0.000000	0.044158	0.021447	0.000000	0.049091	10.540407	0.000000	0.000000	0.000000	0.000000	0.000000	1
54.213050	9.424132	0.000000	0.032157	0.023344	0.000000	0.039737	14.060492	0.000000	0.000000	0.000000	0.000000	0.000000	1
57.322042	9.424132	0.000000	0.027621	0.080138	0.000000	0.084764	8.977018	0.000000	0.000000	0.000000	0.000000	0.000000	1
60.431034	9.424132	0.000000	0.031575	0.052380	0.000000	0.061161	-5.159617	0.000000	0.000000	0.000000	0.000000	0.000000	2
63.540026	9.424132	0.000000	-0.017976	0.001187	0.000000	0.018016	-5.328159	0.000000	0.000000	0.000000	0.000000	0.000000	1
66.649018	9.424132	0.000000	-0.007086	0.000681	0.000000	0.007119	-0.801376	0.000000	0.000000	0.000000	0.000000	0.000000	1
69.758010	9.424132	0.000000	-0.002370	0.000789	0.000000	0.002498	-1.618081	0.000000	0.000000	0.000000	0.000000	0.000000	1
72.867002	9.424132	0.000000	0.001967	-0.002732	0.000000	0.003366	3.690015	0.000000	0.000000	0.000000	0.000000	0.000000	1
75.975994	9.424132	0.000000	-0.012772	0.022504	0.000000	0.025876	32.337809	0.000000	0.000000	0.000000	0.000000	0.000000	1
79.084987	9.424132	0.000000	0.057893	0.118226	0.000000	0.131640	58.941906	0.000000	0.000000	0.000000	0.000000	0.000000	2
82.193979	9.424132	0.000000	0.168157	0.277689	0.000000	0.324635	61.609459	0.000000	0.000000	0.000000	0.000000	0.000000	2
85.302971	9.424132	0.000000	0.367726	0.410881	0.000000	0.551403	82.503239	0.000000	0.000000	0.000000	0.000000	0.000000	1
88.411963	9.424132	0.000000	0.426647	0.660994	0.000000	0.786728	90.702796	0.000000	0.000000	0.000000	0.000000	0.000000	1
91.520955	9.424132	0.000000	0.636505	0.999157	0.000000	1.184675	7.676176	0.000000	0.000000	0.000000	0.000000	0.000000	2
94.629947	9.424132	0.000000	0.694467	0.875513	0.000000	1.117500	-115.778224	0.000000	0.000000	0.000000	0.000000	0.000000	1
97.738939	9.424132	0.000000	0.590474	0.273396	0.000000	0.650696	-98.064578	0.000000	0.000000	0.000000	0.000000	0.000000	2
100.847931	9.424132	0.000000	0.327963	0.253023	0.000000	0.414222	-34.322562	0.000000	0.000000	0.000000	0.000000	0.000000	1
103.956923	9.424132	0.000000	0.235124	0.156936	0.000000	0.282688	-59.222134	0.000000	0.000000	0.000000	0.000000	0.000000	2
107.065915	9.424132	0.000000	0.036360	0.025128	0.000000	0.044198	-59.311715	0.000000	0.000000	0.000000	0.000000	0.000000	2
110.174908	9.424132	0.000000	-0.016301	0.004477	0.000000	0.016904	-26.550430	0.000000	0.000000	0.000000	0.000000	0.000000	1
113.283900	9.424132	0.000000	-0.013137	-0.004258	0.000000	0.013810	-6.950377	0.000000	0.000000	0.000000	0.000000	0.000000	1
116.392892	9.424132	0.000000	-0.003577	-0.005624	0.000000	0.006665	-2.380962	0.000000	0.000000	0.000000	0.000000	0.000000	1
119.501884	9.424132	0.000000	-0.001667	-0.005244	0.000000	0.005502	-0.920337	0.000000	0.000000	0.000000	0.000000	0.000000	1
122.610876	9.424132	0.000000	-0.001420	-0.004764	0.000000	0.004971	0.695672	0.000000	0.000000	0.000000	0.000000	0.000000	1
125.719868	9.424132	0.000000	0.001155	0.000197	0.000000	0.001171	1.414827	0.000000	0.000000	0.000000	0.000000	0.000000	1
128.828860	9.424132	0.000000	-0.003147	0.001631	0.000000	0.003544	2.229665	0.000000	0.000000	0.000000	0.000000	0.000000	1
131.937852	9.424132	0.000000	-0.007366	0.011914	0.000000	0.014007	2.630152	0.000000	0.000000	0.000000	0.000000	0.000000	1
135.046844	9.424132	0.000000	-0.002369	0.019009	0.000000	0.019156	-0.309810	0.000000	0.000000	0.000000	0.000000	0.000000	1
138.155836	9.424132	0.000000	-0.004439	0.005635	0.000000	0.007173	-0.741780	0.000000	0.000000	0.000000	0.000000	0.000000	1
141.264829	9.424132	0.000000	-0.013009	0.007677	0.000000	0.015105	0.779241	0.000000	0.000000	0.000000	0.000000	0.000000	1
144.373821	9.424132	0.000000	-0.007731	0.006102	0.000000	0.009849	0.023175	0.000000	0.000000	0.000000	0.000000	0.000000	1
147.482813	9.424132	0.000000	-0.003246	0.003146	0.000000	0.004521	0.128517	0.000000	0.000000	0.000000	0.000000	0.000000	1
150.591805	9.424132	0.000000	-0.007230	0.005652	0.000000	0.009177	0.049606	0.000000	0.000000	0.000000	0.000000	0.000000	1
153.700797	9.424132	0.000000	-0.006728	0.007114	0.000000	0.009792	-1.176830	0.000000	0.000000	0.000000	0.000000	0.000000	1
156.809789	9.424132	0.000000	-0.002215	0.003513	0.000000	0.004153	-0.993031	0.000000	0.000000	0.000000	0.000000	0.000000	1
159.918781	9.424132	0.000000	-0.003961	0.002902	0.000000	0.004910	-0.194466	0.000000	0.000000	0.000000	0.000000	0.000000	1
4.469176	12.533124	0.000000	0.002559	0.005876	0.000000	0.006409	-0.875075	0.000000	0.000000	0.000000	0.000000	0.000000	1
7.578168	12.533124	0.000000	0.002892	0.006146	0.000000	0.006792	0.276968	0.000000	0.000000	0.000000	0.000000	0.000000	1
10.687160	12.533124	0.000000	0.004085	0.009587	0.000000	0.010421	1.601291	0.000000	0.000000	0.000000	0.000000	0.000000	1
13.796152	12.533124	0.000000	0.006384	0.011136	0.000000	0.012836	1.233890	0.000000	0.000000	0.000000	0.000000	0.000000	1
16.905145	12.533124	0.000000	0.009991	0.011986	0.000000	0.015604	0.570238	0.000000	0.000000	0.000000	0.000000	0.000000	1
20.014137	12.533124	0.000000	0.010782	0.013208	0.000000	0.017050	-0.396727	0.000000	0.000000	0.000000	0.000000	0.000000	1
23.123129	12.533124	0.000000	0.005583	0.007754	0.000000	0.009554	-0.088299	0.000000	0.000000	0.000000	0.000000	0.000000	1
26.232121	12.533124	0.000000	0.010966	0.015717	0.000000	0.019164	0.250705	0.000000	0.000000	0.000000	0.000000	0.000000	1
29.341113	12.533124	0.000000	0.015574	0.020499	0.000000	0.025744	-1.686899	0.000000	0.000000	0.000000	0.000000	0.000000	1
32.450105	12.533124	0.000000	0.002934	0.007395	0.000000	0.007955	-1.478794	0.000000	0.000000	0.000000	0.000000	0.000000	1
35.559097	12.533124	0.000000	0.003297	0.008509	0.000000	0.009126	0.022494	0.000000	0.000000	0.000000	0.000000	0.000000	1
38.668089	12.533124	0.000000	0.004094	0.008366	0.000000	0.009314	1.568936	0.000000	0.000000	0.000000	0.000000	0.000000	1
41.777081	12.533124	0.000000	0.019050	0.014559	0.000000	0.023977	7.419301	0.000000	0.000000	0.000000	0.000000	0.000000	1
44.886073	12.533124	0.000000	-0.001629	0.028601	0.000000	0.028647	14.303301	0.000000	0.000000	0.000000	0.000000	0.000000	1
47.995066	12.533124	0.000000	-0.019323	0.045002	0.000000	0.048975	15.067673	0.000000	0.000000	0.000000	0.000000	0.000000	2
51.104058	12.533124	0.000000	-0.014809	0.042851	0.000000	0.045338	11.785715	0.000000	0.000000	0.000000	0.000000	0.000000	2
54.213050	12.533124	0.000000	-0.008754	0.049477	0.000000	0.050246	12.108507	0.000000	0.000000	0.000000	0.000000	0.000000	1
57.322042	12.533124	0.000000	0.016387	0.060802	0.000000	0.062972	9.657478	0.000000	0.000000	0.000000	0.000000	0.000000	2
60.431034	12.533124	0.000000	-0.001376	0.054357	0.000000	0.054375	-1.061011	0.000000	0.000000	0.000000	0.000000	0.000000	2
63.540026	12.533124	0.000000	-0.020056	0.017623	0.000000	0.026698	-2.761762	0.000000	0.000000	0.000000	0.000000	0.000000	1
66.649018	12.533124	0.000000	-0.000523	0.024906	0.000000	0.024912	2.394709	0.000000	0.000000	0.000000	0.000000	0.000000	1
69.758010	12.533124	0.000000	-0.000910	0.029842	0.000000	0.029856	1.360324	0.000000	0.000000	0.000000	0.000000	0.000000	1
72.867002	12.533124	0.000000	-0.002137	0.008221	0.000000	0.008494	2.444991	0.000000	0.000000	0.000000	0.000000	0.000000	1
75.975994	12.533124	0.000000	-0.026497	0.038245	0.000000	0.046527	11.305995	0.000000	0.000000	0.000000	0.000000	0.000000	1
79.084987	12.533124	0.000000	-0.040747	0.064175	0.000000	0.076018	34.973579	0.000000	0.000000	0.000000	0.000000	0.000000	1
82.193979	12.533124	0.000000	0.050778	0.153363	0.000000	0.161551	75.524132	0.000000	0.000000	0.000000	0.000000	0.000000	2
85.302971	12.533124	0.000000	0.175388	0.303874	0.000000	0.350856	125.185299	0.000000	0.000000	0.000000	0.000000	0.000000	2
88.411963	12.533124	0.000000	0.529414	0.711446	0.000000	0.886811	131.755248	0.000000	0.000000	0.000000	0.000000	0.000000	2
91.520955	12.533124	0.000000	0.692214	0.929137	0.000000	1.158644	71.047962	0.000000	0.000000	0.000000	0.000000	0.000000	2
94.629947	12.533124	0.000000	0.664928	1.142526	0.000000	1.321928	-61.284196	0.000000	0.000000	0.000000	0.000000	0.000000	1
97.738939	12.533124	0.000000	0.591193	0.391950	0.000000	0.709319	-65.580142	0.000000	0.000000	0.000000	0.000000	0.000000	2
100.847931	12.533124	0.000000	0.263796	0.362715	0.000000	0.448498	4.667440	0.000000	0.000000	0.000000	0.000000	0.000000	1
103.956923	12.533124	0.000000	0.253709	0.357308	0.000000	0.438220	-57.771233	0.000000	0.000000	0.000000	0.000000	0.000000	1
107.065915	12.533124	0.000000	0.244410	0.152543	0.000000	0.288107	-86.194395	0.000000	0.000000	0.000000	0.000000	0.000000	1
110.174908	12.533124	0.000000	0.056016	0.010018	0.000000	0.056905	-48.219648	0.000000	0.000000	0.000000	0.000000	0.000000	2
113.283900	12.533124	0.000000	0.002124	-0.003819	0.000000	0.004370	-14.804762	0.000000	0.000000	0.000000	0.000000	0.000000	1
116.392892	12.533124	0.000000	0.000039	-0.003382	0.000000	0.003382	-1.345628	0.000000	0.000000	0.000000	0.000000	0.000000	1
119.501884	12.533124	0.000000	-0.001498	-0.005022	0.000000	0.005240	-0.123106	0.000000	0.000000	0.000000	0.000000	0.000000	1
122.610876	12.533124	0.000000	-0.001150	-0.004229	0.000000	0.004382	1.200646	0.000000	0.000000	0.000000	0.000000	0.000000	1
125.719868	12.533124	0.000000	-0.002776	0.005651	0.000000	0.006296	1.815412	0.000000	0.000000	0.000000	0.000000	0.000000	1
128.828860	12.533124	0.000000	-0.006408	0.008127	0.000000	0.010349	1.502297	0.000000	0.000000	0.000000	0.000000	0.000000	1
131.937852	12.533124	0.000000	-0.007489	0.008496	0.000000	0.011325	1.398633	0.000000	0.000000	0.000000	0.000000	0.000000	1
135.046844	12.533124	0.000000	-0.005013	0.007512	0.000000	0.009031	0.145773	0.000000	0.000000	0.000000	0.000000	0.000000	1
138.155836	12.533124	0.000000	-0.004278	0.004000	0.000000	0.005857	-0.344423	0.000000	0.000000	0.000000	0.000000	0.000000	1
141.264829	12.533124	0.000000	-0.013275	0.007478	0.000000	0.015236	-0.756355	0.000000	0.000000	0.000000	0.000000	0.000000	1
144.373821	12.533124	0.000000	-0.008886	0.005822	0.000000	0.010624	-1.031924	0.000000	0.000000	0.000000	0.000000	0.000000	1
147.482813	12.533124	0.000000	-0.003102	0.003012	0.000000	0.004324	0.285214	0.000000	0.000000	0.000000	0.000000	0.000000	1
150.591805	12.533124	0.000000	-0.006573	0.006705	0.000000	0.009389	0.445279	0.000000	0.000000	0.000000	0.000000	0.000000	1
153.700797	12.533124	0.000000	-0.000544	0.003503	0.000000	0.003545	0.032167	0.000000	0.000000	0.000000	0.000000	0.000000	1
156.809789	12.533124	0.000000	-0.001776	0.003948	0.000000	0.004329	0.456230	0.000000	0.000000	0.000000	0.000000	0.000000	1
159.918781	12.533124	0.000000	-0.003398	0.003716	0.000000	0.005035	0.660425	0.000000	0.000000	0.000000	0.000000	0.000000	1
4.469176	15.642117	0.000000	0.006699	0.006039	0.000000	0.009019	0.271322	0.000000	0.000000	0.000000	0.000000	0.000000	1
7.578168	15.642117	0.000000	0.005102	0.006051	0.000000	0.007915	0.836430	0.000000	0.000000	0.000000	0.000000	0.000000	1
10.687160	15.642117	0.000000	-0.003315	0.008089	0.000000	0.008742	1.234793	0.000000	0.000000	0.000000	0.000000	0.000000	1
13.796152	15.642117	0.000000	0.001034	0.009207	0.000000	0.009265	0.932950	0.000000	0.000000	0.000000	0.000000	0.000000	1
16.905145	15.642117	0.000000	0.008585	0.011405	0.000000	0.014275	0.564458	0.000000	0.000000	0.000000	0.000000	0.000000	1
20.014137	15.642117	0.000000	0.009050	0.011623	0.000000	0.014731	-0.685191	0.000000	0.000000	0.000000	0.000000	0.000000	1
23.123129	15.642117	0.000000	0.003377	0.004244	0.000000	0.005424	0.549628	0.000000	0.000000	0.000000	0.000000	0.000000	1
26.232121	15.642117	0.000000	0.010787	0.015070	0.000000	0.018533	1.987935	0.000000	0.000000	0.000000	0.000000	0.000000	1
29.341113	15.642117	0.000000	0.009790	0.012083	0.000000	0.015551	0.079311	0.000000	0.000000	0.000000	0.000000	0.000000	1
32.450105	15.642117	0.000000	0.004838	0.008749	0.000000	0.009998	-0.111391	0.000000	0.000000	0.000000	0.000000	0.000000	1
35.559097	15.642117	0.000000	0.001340	0.009439	0.000000	0.009534	1.525428	0.000000	0.000000	0.000000	0.000000	0.000000	1
38.668089	15.642117	0.000000	0.001476	0.013895	0.000000	0.013973	6.117070	0.000000	0.000000	0.000000	0.000000	0.000000	1
41.777081	15.642117	0.000000	0.001576	0.014604	0.000000	0.014689	19.948057	0.000000	0.000000	0.000000	0.000000	0.000000	2
44.886073	15.642117	0.000000	-0.030883	0.060517	0.000000	0.067942	23.966367	0.000000	0.000000	0.000000	0.000000	0.000000	2
47.995066	15.642117	0.000000	-0.083239	0.092401	0.000000	0.124366	11.383874	0.000000	0.000000	0.000000	0.000000	0.000000	2
51.104058	15.642117	0.000000	-0.046650	0.062293	0.000000	0.077825	3.891339	0.000000	0.000000	0.000000	0.000000	0.000000	2
54.213050	15.642117	0.000000	-0.016349	0.034074	0.000000	0.037793	4.155927	0.000000	0.000000	0.000000	0.000000	0.000000	1
57.322042	15.642117	0.000000	-0.003532	0.049890	0.000000	0.050015	6.195826	0.000000	0.000000	0.000000	0.000000	0.000000	1
60.431034	15.642117	0.000000	-0.038776	0.054315	0.000000	0.066736	-0.397293	0.000000	0.000000	0.000000	0.000000	0.000000	2
63.540026	15.642117	0.000000	-0.016984	0.017947	0.000000	0.024709	-2.377422	0.000000	0.000000	0.000000	0.000000	0.000000	1
66.649018	15.642117	0.000000	-0.005135	0.029811	0.000000	0.030250	5.287100	0.000000	0.000000	0.000000	0.000000	0.000000	1
69.758010	15.642117	0.000000	-0.009617	0.051116	0.000000	0.052013	6.109590	0.000000	0.000000	0.000000	0.000000	0.000000	1
72.867002	15.642117	0.000000	-0.013428	0.072490	0.000000	0.073723	0.089232	0.000000	0.000000	0.000000	0.000000	0.000000	1
75.975994	15.642117	0.000000	-0.001577	0.046566	0.000000	0.046593	-1.435974	0.000000	0.000000	0.000000	0.000000	0.000000	1
79.084987	15.642117	0.000000	-0.027019	0.042912	0.000000	0.050709	8.741514	0.000000	0.000000	0.000000	0.000000	0.000000	1
82.193979	15.642117	0.000000	-0.044598	0.059623	0.000000	0.074457	46.482128	0.000000	0.000000	0.000000	0.000000	0.000000	1
85.302971	15.642117	0.000000	0.007321	0.278467	0.000000	0.278564	106.507638	0.000000	0.000000	0.000000	0.000000	0.000000	2
88.411963	15.642117	0.000000	0.160637	0.474186	0.000000	0.500656	133.867122	0.000000	0.000000	0.000000	0.000000	0.000000	2
91.520955	15.642117	0.000000	0.521626	0.709377	0.000000	0.880517	103.524859	0.000000	0.000000	0.000000	0.000000	0.000000	2
94.629947	15.642117	0.000000	0.572927	0.547304	0.000000	0.792331	21.708222	0.000000	0.000000	0.000000	0.000000	0.000000	2
97.738939	15.642117	0.000000	0.323503	0.360323	0.000000	0.484239	-0.822054	0.000000	0.000000	0.000000	0.000000	0.000000	1
100.847931	15.642117	0.000000	0.337948	0.452811	0.000000	0.565019	8.159640	0.000000	0.000000	0.000000	0.000000	0.000000	1
103.956923	15.642117	0.000000	0.329403	0.509433	0.000000	0.606653	-60.599705	0.000000	0.000000	0.000000	0.000000	0.000000	2
107.065915	15.642117	0.000000	0.323112	0.149458	0.000000	0.356004	-73.670678	0.000000	0.000000	0.000000	0.000000	0.000000	1
110.174908	15.642117	0.000000	0.183149	0.079877	0.000000	0.199810	-32.679472	0.000000	0.000000	0.000000	0.000000	0.000000	1
113.283900	15.642117	0.000000	0.009413	0.000449	0.000000	0.009423	-14.194125	0.000000	0.000000	0.000000	0.000000	0.000000	1
116.392892	15.642117	0.000000	0.000031	-0.003291	0.000000	0.003291	-0.311357	0.000000	0.000000	0.000000	0.000000	0.000000	1
119.501884	15.642117	0.000000	0.000606	0.002409	0.000000	0.002484	1.635620	0.000000	0.000000	0.000000	0.000000	0.000000	1
122.610876	15.642117	0.000000	0.000995	0.005050	0.000000	0.005148	0.188195	0.000000	0.000000	0.000000	0.000000	0.000000	1