TITLE = "PIV Result  949 "
VARIABLES = "X (mm)""Y (mm)""Z (mm)""U (m/s)""V (m/s)""W (m/s)""Speed (m/s)""Vorticity""U-std""V-std""W-std""Speed-std""Vorticity-std""Flag"
ZONE T="ZONE 949 "
I= 51 , J= 16 , K= 1 , F=POINT
DT=(DOUBLE DOUBLE DOUBLE DOUBLE DOUBLE DOUBLE DOUBLE DOUBLE DOUBLE DOUBLE DOUBLE DOUBLE DOUBLE DOUBLE)
4.469176	3.206148	0.000000	0.003105	0.011953	0.000000	0.012350	-2.456152	0.000000	0.000000	0.000000	0.000000	0.000000	2
7.578168	3.206148	0.000000	0.004120	0.007773	0.000000	0.008797	-0.436565	0.000000	0.000000	0.000000	0.000000	0.000000	1
10.687160	3.206148	0.000000	0.004856	0.009038	0.000000	0.010260	1.250872	0.000000	0.000000	0.000000	0.000000	0.000000	1
13.796152	3.206148	0.000000	0.004340	0.009174	0.000000	0.010148	0.139081	0.000000	0.000000	0.000000	0.000000	0.000000	1
16.905145	3.206148	0.000000	0.000350	0.006463	0.000000	0.006473	-0.449673	0.000000	0.000000	0.000000	0.000000	0.000000	1
20.014137	3.206148	0.000000	0.001795	0.005741	0.000000	0.006015	-0.044463	0.000000	0.000000	0.000000	0.000000	0.000000	1
23.123129	3.206148	0.000000	0.001284	0.005180	0.000000	0.005337	-0.769069	0.000000	0.000000	0.000000	0.000000	0.000000	1
26.232121	3.206148	0.000000	-0.000388	0.009573	0.000000	0.009581	-2.305132	0.000000	0.000000	0.000000	0.000000	0.000000	1
29.341113	3.206148	0.000000	0.001201	0.010858	0.000000	0.010924	-0.867170	0.000000	0.000000	0.000000	0.000000	0.000000	1
32.450105	3.206148	0.000000	0.006695	0.022587	0.000000	0.023558	-3.025335	0.000000	0.000000	0.000000	0.000000	0.000000	1
35.559097	3.206148	0.000000	-0.004229	-0.000873	0.000000	0.004319	-5.282332	0.000000	0.000000	0.000000	0.000000	0.000000	1
38.668089	3.206148	0.000000	-0.003195	-0.000840	0.000000	0.003303	-2.061653	0.000000	0.000000	0.000000	0.000000	0.000000	1
41.777081	3.206148	0.000000	0.001659	-0.000360	0.000000	0.001698	-0.617856	0.000000	0.000000	0.000000	0.000000	0.000000	1
44.886073	3.206148	0.000000	0.004733	-0.001449	0.000000	0.004950	-0.844096	0.000000	0.000000	0.000000	0.000000	0.000000	1
47.995066	3.206148	0.000000	0.003315	-0.000793	0.000000	0.003409	-1.594504	0.000000	0.000000	0.000000	0.000000	0.000000	1
51.104058	3.206148	0.000000	0.005600	0.000963	0.000000	0.005682	2.702035	0.000000	0.000000	0.000000	0.000000	0.000000	1
54.213050	3.206148	0.000000	0.002382	0.000374	0.000000	0.002411	17.312910	0.000000	0.000000	0.000000	0.000000	0.000000	1
57.322042	3.206148	0.000000	-0.027729	-0.002623	0.000000	0.027853	25.499158	0.000000	0.000000	0.000000	0.000000	0.000000	1
60.431034	3.206148	0.000000	-0.076159	-0.005108	0.000000	0.076330	15.358617	0.000000	0.000000	0.000000	0.000000	0.000000	2
63.540026	3.206148	0.000000	-0.089909	-0.000587	0.000000	0.089911	11.470263	0.000000	0.000000	0.000000	0.000000	0.000000	2
66.649018	3.206148	0.000000	-0.061317	-0.001629	0.000000	0.061339	24.376058	0.000000	0.000000	0.000000	0.000000	0.000000	1
69.758010	3.206148	0.000000	-0.179403	0.043088	0.000000	0.184504	61.862614	0.000000	0.000000	0.000000	0.000000	0.000000	2
72.867002	3.206148	0.000000	-0.291469	0.291469	0.000000	0.412199	76.615601	0.000000	0.000000	0.000000	0.000000	0.000000	1
75.975994	3.206148	0.000000	-0.291469	0.291469	0.000000	0.412199	102.545556	0.000000	0.000000	0.000000	0.000000	0.000000	1
79.084987	3.206148	0.000000	-0.307641	0.568111	0.000000	0.646060	123.803761	0.000000	0.000000	0.000000	0.000000	0.000000	1
82.193979	3.206148	0.000000	-0.205685	0.679546	0.000000	0.709993	122.115570	0.000000	0.000000	0.000000	0.000000	0.000000	2
85.302971	3.206148	0.000000	-0.054358	1.071414	0.000000	1.072792	57.409715	0.000000	0.000000	0.000000	0.000000	0.000000	2
88.411963	3.206148	0.000000	-0.004988	1.343050	0.000000	1.343060	-175.054701	0.000000	0.000000	0.000000	0.000000	0.000000	1
91.520955	3.206148	0.000000	0.007142	0.059624	0.000000	0.060050	-175.484464	0.000000	0.000000	0.000000	0.000000	0.000000	2
94.629947	3.206148	0.000000	-0.009217	-0.030169	0.000000	0.031545	-12.644819	0.000000	0.000000	0.000000	0.000000	0.000000	1
97.738939	3.206148	0.000000	-0.007404	-0.002794	0.000000	0.007914	4.675146	0.000000	0.000000	0.000000	0.000000	0.000000	1
100.847931	3.206148	0.000000	-0.002610	0.000149	0.000000	0.002614	9.564131	0.000000	0.000000	0.000000	0.000000	0.000000	1
103.956923	3.206148	0.000000	0.000218	0.001056	0.000000	0.001078	7.565386	0.000000	0.000000	0.000000	0.000000	0.000000	1
107.065915	3.206148	0.000000	-0.000569	-0.000251	0.000000	0.000622	4.595962	0.000000	0.000000	0.000000	0.000000	0.000000	1
110.174908	3.206148	0.000000	0.001118	-0.001061	0.000000	0.001541	3.167226	0.000000	0.000000	0.000000	0.000000	0.000000	1
113.283900	3.206148	0.000000	0.000238	-0.000482	0.000000	0.000538	2.132207	0.000000	0.000000	0.000000	0.000000	0.000000	1
116.392892	3.206148	0.000000	-0.002596	0.000030	0.000000	0.002597	1.650156	0.000000	0.000000	0.000000	0.000000	0.000000	1
119.501884	3.206148	0.000000	0.000928	-0.000209	0.000000	0.000951	1.413613	0.000000	0.000000	0.000000	0.000000	0.000000	1
122.610876	3.206148	0.000000	-0.000012	0.000116	0.000000	0.000117	0.911440	0.000000	0.000000	0.000000	0.000000	0.000000	1
125.719868	3.206148	0.000000	0.000656	0.000635	0.000000	0.000913	0.544379	0.000000	0.000000	0.000000	0.000000	0.000000	1
128.828860	3.206148	0.000000	-0.000029	-0.000208	0.000000	0.000210	1.415123	0.000000	0.000000	0.000000	0.000000	0.000000	1
131.937852	3.206148	0.000000	0.000989	-0.000765	0.000000	0.001250	1.981810	0.000000	0.000000	0.000000	0.000000	0.000000	1
135.046844	3.206148	0.000000	-0.006631	0.008416	0.000000	0.010714	1.058111	0.000000	0.000000	0.000000	0.000000	0.000000	1
138.155836	3.206148	0.000000	-0.006503	0.013152	0.000000	0.014672	-0.410562	0.000000	0.000000	0.000000	0.000000	0.000000	1
141.264829	3.206148	0.000000	-0.011147	0.016563	0.000000	0.019964	-2.234753	0.000000	0.000000	0.000000	0.000000	0.000000	1
144.373821	3.206148	0.000000	-0.008962	0.010298	0.000000	0.013652	-2.017835	0.000000	0.000000	0.000000	0.000000	0.000000	1
147.482813	3.206148	0.000000	-0.007275	0.005604	0.000000	0.009183	0.064243	0.000000	0.000000	0.000000	0.000000	0.000000	1
150.591805	3.206148	0.000000	-0.012136	0.007363	0.000000	0.014195	-0.212735	0.000000	0.000000	0.000000	0.000000	0.000000	1
153.700797	3.206148	0.000000	-0.012118	0.006721	0.000000	0.013857	-1.659056	0.000000	0.000000	0.000000	0.000000	0.000000	1
156.809789	3.206148	0.000000	-0.007040	0.004551	0.000000	0.008383	-1.667734	0.000000	0.000000	0.000000	0.000000	0.000000	1
159.918781	3.206148	0.000000	-0.007177	0.004215	0.000000	0.008323	-1.213324	0.000000	0.000000	0.000000	0.000000	0.000000	1
4.469176	6.315140	0.000000	0.005354	0.019503	0.000000	0.020224	-3.497521	0.000000	0.000000	0.000000	0.000000	0.000000	1
7.578168	6.315140	0.000000	-0.000346	0.006193	0.000000	0.006203	-1.280139	0.000000	0.000000	0.000000	0.000000	0.000000	1
10.687160	6.315140	0.000000	0.001981	0.007431	0.000000	0.007690	0.600505	0.000000	0.000000	0.000000	0.000000	0.000000	1
13.796152	6.315140	0.000000	0.002104	0.007898	0.000000	0.008174	-0.520354	0.000000	0.000000	0.000000	0.000000	0.000000	1
16.905145	6.315140	0.000000	0.000186	0.004226	0.000000	0.004230	-1.319317	0.000000	0.000000	0.000000	0.000000	0.000000	1
20.014137	6.315140	0.000000	0.001136	0.002517	0.000000	0.002761	-0.497891	0.000000	0.000000	0.000000	0.000000	0.000000	1
23.123129	6.315140	0.000000	0.008411	0.010602	0.000000	0.013533	0.191937	0.000000	0.000000	0.000000	0.000000	0.000000	1
26.232121	6.315140	0.000000	0.010084	0.013189	0.000000	0.016602	-0.691763	0.000000	0.000000	0.000000	0.000000	0.000000	1
29.341113	6.315140	0.000000	0.009845	0.012974	0.000000	0.016286	-0.233704	0.000000	0.000000	0.000000	0.000000	0.000000	1
32.450105	6.315140	0.000000	0.010237	0.020694	0.000000	0.023088	-1.501030	0.000000	0.000000	0.000000	0.000000	0.000000	1
35.559097	6.315140	0.000000	0.003847	0.010887	0.000000	0.011547	-3.256793	0.000000	0.000000	0.000000	0.000000	0.000000	1
38.668089	6.315140	0.000000	-0.000573	0.000746	0.000000	0.000941	-1.889813	0.000000	0.000000	0.000000	0.000000	0.000000	1
41.777081	6.315140	0.000000	0.001003	-0.002599	0.000000	0.002786	-1.243284	0.000000	0.000000	0.000000	0.000000	0.000000	1
44.886073	6.315140	0.000000	0.006513	-0.003237	0.000000	0.007273	-0.820884	0.000000	0.000000	0.000000	0.000000	0.000000	1
47.995066	6.315140	0.000000	0.008172	-0.004902	0.000000	0.009530	0.763252	0.000000	0.000000	0.000000	0.000000	0.000000	1
51.104058	6.315140	0.000000	0.013552	-0.006031	0.000000	0.014833	14.031174	0.000000	0.000000	0.000000	0.000000	0.000000	1
54.213050	6.315140	0.000000	-0.030011	0.015903	0.000000	0.033964	44.819370	0.000000	0.000000	0.000000	0.000000	0.000000	2
57.322042	6.315140	0.000000	-0.119005	0.064749	0.000000	0.135479	57.290576	0.000000	0.000000	0.000000	0.000000	0.000000	1
60.431034	6.315140	0.000000	-0.145899	0.053808	0.000000	0.155505	41.660754	0.000000	0.000000	0.000000	0.000000	0.000000	2
63.540026	6.315140	0.000000	-0.103660	0.009208	0.000000	0.104068	36.262409	0.000000	0.000000	0.000000	0.000000	0.000000	1
66.649018	6.315140	0.000000	-0.110351	0.046700	0.000000	0.119826	49.892657	0.000000	0.000000	0.000000	0.000000	0.000000	2
69.758010	6.315140	0.000000	-0.248454	0.087805	0.000000	0.263513	69.613370	0.000000	0.000000	0.000000	0.000000	0.000000	1
72.867002	6.315140	0.000000	-0.379081	0.248176	0.000000	0.453094	78.543730	0.000000	0.000000	0.000000	0.000000	0.000000	2
75.975994	6.315140	0.000000	-0.434562	0.404845	0.000000	0.593923	107.311251	0.000000	0.000000	0.000000	0.000000	0.000000	1
79.084987	6.315140	0.000000	-0.452888	0.727745	0.000000	0.857158	128.793137	0.000000	0.000000	0.000000	0.000000	0.000000	1
82.193979	6.315140	0.000000	-0.363955	0.964535	0.000000	1.030917	90.327728	0.000000	0.000000	0.000000	0.000000	0.000000	1
85.302971	6.315140	0.000000	-0.103728	1.231915	0.000000	1.236274	-14.688009	0.000000	0.000000	0.000000	0.000000	0.000000	1
88.411963	6.315140	0.000000	0.014920	0.777877	0.000000	0.778020	-156.912066	0.000000	0.000000	0.000000	0.000000	0.000000	2
91.520955	6.315140	0.000000	0.009427	0.059458	0.000000	0.060200	-123.101751	0.000000	0.000000	0.000000	0.000000	0.000000	2
94.629947	6.315140	0.000000	-0.000636	0.001832	0.000000	0.001939	-12.322178	0.000000	0.000000	0.000000	0.000000	0.000000	2
97.738939	6.315140	0.000000	-0.013009	-0.021533	0.000000	0.025158	1.935134	0.000000	0.000000	0.000000	0.000000	0.000000	1
100.847931	6.315140	0.000000	-0.034931	-0.005296	0.000000	0.035330	6.574439	0.000000	0.000000	0.000000	0.000000	0.000000	1
103.956923	6.315140	0.000000	-0.014564	0.008527	0.000000	0.016877	3.998630	0.000000	0.000000	0.000000	0.000000	0.000000	1
107.065915	6.315140	0.000000	-0.019855	0.008016	0.000000	0.021412	0.237372	0.000000	0.000000	0.000000	0.000000	0.000000	1
110.174908	6.315140	0.000000	-0.009751	0.003577	0.000000	0.010386	-0.776619	0.000000	0.000000	0.000000	0.000000	0.000000	1
113.283900	6.315140	0.000000	-0.006668	-0.000293	0.000000	0.006674	0.120043	0.000000	0.000000	0.000000	0.000000	0.000000	1
116.392892	6.315140	0.000000	-0.005204	0.001716	0.000000	0.005480	0.883961	0.000000	0.000000	0.000000	0.000000	0.000000	1
119.501884	6.315140	0.000000	-0.004357	0.002550	0.000000	0.005048	0.883981	0.000000	0.000000	0.000000	0.000000	0.000000	1
122.610876	6.315140	0.000000	-0.003680	0.002364	0.000000	0.004374	0.841649	0.000000	0.000000	0.000000	0.000000	0.000000	1
125.719868	6.315140	0.000000	0.000462	0.000225	0.000000	0.000514	1.241539	0.000000	0.000000	0.000000	0.000000	0.000000	1
128.828860	6.315140	0.000000	-0.002151	0.003280	0.000000	0.003922	1.916694	0.000000	0.000000	0.000000	0.000000	0.000000	1
131.937852	6.315140	0.000000	-0.006222	0.007575	0.000000	0.009803	1.261175	0.000000	0.000000	0.000000	0.000000	0.000000	1
135.046844	6.315140	0.000000	-0.004500	0.004888	0.000000	0.006644	0.495328	0.000000	0.000000	0.000000	0.000000	0.000000	1
138.155836	6.315140	0.000000	-0.004939	0.005429	0.000000	0.007340	0.571035	0.000000	0.000000	0.000000	0.000000	0.000000	1
141.264829	6.315140	0.000000	-0.003294	0.004746	0.000000	0.005777	-0.244614	0.000000	0.000000	0.000000	0.000000	0.000000	1
144.373821	6.315140	0.000000	-0.003267	0.003456	0.000000	0.004756	-0.939117	0.000000	0.000000	0.000000	0.000000	0.000000	1
147.482813	6.315140	0.000000	-0.011769	0.005359	0.000000	0.012932	-0.286879	0.000000	0.000000	0.000000	0.000000	0.000000	1
150.591805	6.315140	0.000000	-0.012020	0.004012	0.000000	0.012672	-0.265231	0.000000	0.000000	0.000000	0.000000	0.000000	1
153.700797	6.315140	0.000000	-0.004985	0.004465	0.000000	0.006693	-0.753719	0.000000	0.000000	0.000000	0.000000	0.000000	1
156.809789	6.315140	0.000000	-0.003205	0.004408	0.000000	0.005450	-0.850072	0.000000	0.000000	0.000000	0.000000	0.000000	1
159.918781	6.315140	0.000000	-0.004152	0.004060	0.000000	0.005807	-0.895471	0.000000	0.000000	0.000000	0.000000	0.000000	1
4.469176	9.424132	0.000000	0.006636	0.017519	0.000000	0.018734	-2.509312	0.000000	0.000000	0.000000	0.000000	0.000000	1
7.578168	9.424132	0.000000	0.000540	0.004775	0.000000	0.004806	-0.795764	0.000000	0.000000	0.000000	0.000000	0.000000	1
10.687160	9.424132	0.000000	0.003988	0.008243	0.000000	0.009157	0.405564	0.000000	0.000000	0.000000	0.000000	0.000000	1
13.796152	9.424132	0.000000	0.003928	0.009174	0.000000	0.009979	-0.487583	0.000000	0.000000	0.000000	0.000000	0.000000	1
16.905145	9.424132	0.000000	0.007265	0.009508	0.000000	0.011966	-1.073558	0.000000	0.000000	0.000000	0.000000	0.000000	1
20.014137	9.424132	0.000000	0.007134	0.009312	0.000000	0.011731	-0.726472	0.000000	0.000000	0.000000	0.000000	0.000000	1
23.123129	9.424132	0.000000	0.004781	0.006747	0.000000	0.008270	0.728754	0.000000	0.000000	0.000000	0.000000	0.000000	1
26.232121	9.424132	0.000000	0.009649	0.011282	0.000000	0.014845	1.578870	0.000000	0.000000	0.000000	0.000000	0.000000	1
29.341113	9.424132	0.000000	0.010948	0.012439	0.000000	0.016570	1.186289	0.000000	0.000000	0.000000	0.000000	0.000000	1
32.450105	9.424132	0.000000	0.005968	0.006249	0.000000	0.008641	0.188533	0.000000	0.000000	0.000000	0.000000	0.000000	1
35.559097	9.424132	0.000000	0.002609	0.006141	0.000000	0.006672	-1.074229	0.000000	0.000000	0.000000	0.000000	0.000000	1
38.668089	9.424132	0.000000	-0.000592	0.004119	0.000000	0.004162	-1.472962	0.000000	0.000000	0.000000	0.000000	0.000000	1
41.777081	9.424132	0.000000	0.006751	0.002733	0.000000	0.007283	-1.193484	0.000000	0.000000	0.000000	0.000000	0.000000	1
44.886073	9.424132	0.000000	0.009346	-0.000828	0.000000	0.009383	0.802761	0.000000	0.000000	0.000000	0.000000	0.000000	1
47.995066	9.424132	0.000000	-0.004983	-0.006625	0.000000	0.008290	17.015377	0.000000	0.000000	0.000000	0.000000	0.000000	1
51.104058	9.424132	0.000000	0.004089	0.007839	0.000000	0.008841	50.997316	0.000000	0.000000	0.000000	0.000000	0.000000	2
54.213050	9.424132	0.000000	-0.170797	0.115084	0.000000	0.205951	78.793352	0.000000	0.000000	0.000000	0.000000	0.000000	2
57.322042	9.424132	0.000000	-0.365511	0.298961	0.000000	0.472203	72.248786	0.000000	0.000000	0.000000	0.000000	0.000000	1
60.431034	9.424132	0.000000	-0.347048	0.350054	0.000000	0.492930	43.181027	0.000000	0.000000	0.000000	0.000000	0.000000	1
63.540026	9.424132	0.000000	-0.350496	0.304048	0.000000	0.463997	27.125383	0.000000	0.000000	0.000000	0.000000	0.000000	1
66.649018	9.424132	0.000000	-0.375494	0.156472	0.000000	0.406791	44.173862	0.000000	0.000000	0.000000	0.000000	0.000000	1
69.758010	9.424132	0.000000	-0.411213	0.223360	0.000000	0.467959	43.206901	0.000000	0.000000	0.000000	0.000000	0.000000	1
72.867002	9.424132	0.000000	-0.475818	0.229699	0.000000	0.528360	42.618717	0.000000	0.000000	0.000000	0.000000	0.000000	1
75.975994	9.424132	0.000000	-0.507900	0.477498	0.000000	0.697113	64.634568	0.000000	0.000000	0.000000	0.000000	0.000000	1
79.084987	9.424132	0.000000	-0.621547	0.731849	0.000000	0.960168	66.216910	0.000000	0.000000	0.000000	0.000000	0.000000	1
82.193979	9.424132	0.000000	-0.433001	1.101827	0.000000	1.183855	-11.586739	0.000000	0.000000	0.000000	0.000000	0.000000	2
85.302971	9.424132	0.000000	-0.149378	0.603279	0.000000	0.621498	-108.254044	0.000000	0.000000	0.000000	0.000000	0.000000	2
88.411963	9.424132	0.000000	0.033476	0.067426	0.000000	0.075279	-94.813214	0.000000	0.000000	0.000000	0.000000	0.000000	2
91.520955	9.424132	0.000000	0.019288	0.051323	0.000000	0.054827	-37.933039	0.000000	0.000000	0.000000	0.000000	0.000000	2
94.629947	9.424132	0.000000	0.006220	0.009143	0.000000	0.011058	-10.245626	0.000000	0.000000	0.000000	0.000000	0.000000	1
97.738939	9.424132	0.000000	-0.020523	-0.000854	0.000000	0.020541	-3.056271	0.000000	0.000000	0.000000	0.000000	0.000000	1
100.847931	9.424132	0.000000	-0.031068	0.001952	0.000000	0.031130	0.218694	0.000000	0.000000	0.000000	0.000000	0.000000	1
103.956923	9.424132	0.000000	-0.016432	0.012009	0.000000	0.020352	-0.396927	0.000000	0.000000	0.000000	0.000000	0.000000	1
107.065915	9.424132	0.000000	-0.002910	0.011083	0.000000	0.011459	-2.776682	0.000000	0.000000	0.000000	0.000000	0.000000	1
110.174908	9.424132	0.000000	0.002678	0.010160	0.000000	0.010507	-3.216256	0.000000	0.000000	0.000000	0.000000	0.000000	1
113.283900	9.424132	0.000000	-0.005842	0.003318	0.000000	0.006718	-1.484174	0.000000	0.000000	0.000000	0.000000	0.000000	1
116.392892	9.424132	0.000000	-0.004769	0.003006	0.000000	0.005637	-0.116569	0.000000	0.000000	0.000000	0.000000	0.000000	1
119.501884	9.424132	0.000000	-0.004894	0.003098	0.000000	0.005792	0.700419	0.000000	0.000000	0.000000	0.000000	0.000000	1
122.610876	9.424132	0.000000	-0.005445	0.004361	0.000000	0.006976	1.181419	0.000000	0.000000	0.000000	0.000000	0.000000	1
125.719868	9.424132	0.000000	-0.004537	0.005957	0.000000	0.007488	1.519200	0.000000	0.000000	0.000000	0.000000	0.000000	1
128.828860	9.424132	0.000000	-0.008364	0.009579	0.000000	0.012717	1.497268	0.000000	0.000000	0.000000	0.000000	0.000000	1
131.937852	9.424132	0.000000	-0.008044	0.009433	0.000000	0.012397	0.383706	0.000000	0.000000	0.000000	0.000000	0.000000	1
135.046844	9.424132	0.000000	-0.004653	0.004684	0.000000	0.006602	0.482754	0.000000	0.000000	0.000000	0.000000	0.000000	1
138.155836	9.424132	0.000000	-0.005847	0.007706	0.000000	0.009673	2.077964	0.000000	0.000000	0.000000	0.000000	0.000000	1
141.264829	9.424132	0.000000	-0.011877	0.013583	0.000000	0.018043	1.929007	0.000000	0.000000	0.000000	0.000000	0.000000	1
144.373821	9.424132	0.000000	-0.004506	0.012073	0.000000	0.012887	-0.827597	0.000000	0.000000	0.000000	0.000000	0.000000	1
147.482813	9.424132	0.000000	-0.012294	0.003120	0.000000	0.012684	-1.822522	0.000000	0.000000	0.000000	0.000000	0.000000	1
150.591805	9.424132	0.000000	-0.012438	0.000876	0.000000	0.012469	-0.918405	0.000000	0.000000	0.000000	0.000000	0.000000	1
153.700797	9.424132	0.000000	-0.005576	-0.001888	0.000000	0.005887	-0.246177	0.000000	0.000000	0.000000	0.000000	0.000000	1
156.809789	9.424132	0.000000	-0.002041	0.001931	0.000000	0.002810	0.134979	0.000000	0.000000	0.000000	0.000000	0.000000	1
159.918781	9.424132	0.000000	-0.001512	0.002490	0.000000	0.002913	-0.179404	0.000000	0.000000	0.000000	0.000000	0.000000	1
4.469176	12.533124	0.000000	-0.001302	0.007123	0.000000	0.007241	-0.540235	0.000000	0.000000	0.000000	0.000000	0.000000	1
7.578168	12.533124	0.000000	-0.001296	0.007109	0.000000	0.007227	0.067115	0.000000	0.000000	0.000000	0.000000	0.000000	1
10.687160	12.533124	0.000000	0.003158	0.010576	0.000000	0.011037	0.638312	0.000000	0.000000	0.000000	0.000000	0.000000	1
13.796152	12.533124	0.000000	0.003144	0.009137	0.000000	0.009663	0.374151	0.000000	0.000000	0.000000	0.000000	0.000000	1
16.905145	12.533124	0.000000	0.007093	0.009286	0.000000	0.011686	0.361553	0.000000	0.000000	0.000000	0.000000	0.000000	1
20.014137	12.533124	0.000000	0.006986	0.008246	0.000000	0.010808	-0.044850	0.000000	0.000000	0.000000	0.000000	0.000000	1
23.123129	12.533124	0.000000	0.005250	0.005812	0.000000	0.007832	-0.341263	0.000000	0.000000	0.000000	0.000000	0.000000	1
26.232121	12.533124	0.000000	0.001113	0.002318	0.000000	0.002572	0.418305	0.000000	0.000000	0.000000	0.000000	0.000000	1
29.341113	12.533124	0.000000	0.002703	0.003082	0.000000	0.004100	0.187279	0.000000	0.000000	0.000000	0.000000	0.000000	1
32.450105	12.533124	0.000000	0.005324	0.006217	0.000000	0.008185	-0.397883	0.000000	0.000000	0.000000	0.000000	0.000000	1
35.559097	12.533124	0.000000	0.004995	0.006635	0.000000	0.008305	-0.751493	0.000000	0.000000	0.000000	0.000000	0.000000	1
38.668089	12.533124	0.000000	0.003455	0.005116	0.000000	0.006174	-0.630206	0.000000	0.000000	0.000000	0.000000	0.000000	1
41.777081	12.533124	0.000000	0.007522	0.006024	0.000000	0.009637	0.123272	0.000000	0.000000	0.000000	0.000000	0.000000	1
44.886073	12.533124	0.000000	0.005178	0.005040	0.000000	0.007226	6.221597	0.000000	0.000000	0.000000	0.000000	0.000000	1
47.995066	12.533124	0.000000	-0.030168	0.012517	0.000000	0.032662	39.895994	0.000000	0.000000	0.000000	0.000000	0.000000	1
51.104058	12.533124	0.000000	-0.186450	0.135690	0.000000	0.230597	69.393371	0.000000	0.000000	0.000000	0.000000	0.000000	2
54.213050	12.533124	0.000000	-0.355037	0.253331	0.000000	0.436151	55.882203	0.000000	0.000000	0.000000	0.000000	0.000000	1
57.322042	12.533124	0.000000	-0.444761	0.266602	0.000000	0.518545	45.140710	0.000000	0.000000	0.000000	0.000000	0.000000	2
60.431034	12.533124	0.000000	-0.382327	0.329489	0.000000	0.504715	40.585750	0.000000	0.000000	0.000000	0.000000	0.000000	1
63.540026	12.533124	0.000000	-0.370973	0.320043	0.000000	0.489947	19.387601	0.000000	0.000000	0.000000	0.000000	0.000000	1
66.649018	12.533124	0.000000	-0.386921	0.350799	0.000000	0.522272	32.462889	0.000000	0.000000	0.000000	0.000000	0.000000	1
69.758010	12.533124	0.000000	-0.364440	0.565074	0.000000	0.672403	26.600546	0.000000	0.000000	0.000000	0.000000	0.000000	1
72.867002	12.533124	0.000000	-0.406441	0.541608	0.000000	0.677151	-15.098204	0.000000	0.000000	0.000000	0.000000	0.000000	1
75.975994	12.533124	0.000000	-0.563851	0.499776	0.000000	0.753461	-46.230215	0.000000	0.000000	0.000000	0.000000	0.000000	1
79.084987	12.533124	0.000000	-0.474354	0.357927	0.000000	0.594242	-66.004273	0.000000	0.000000	0.000000	0.000000	0.000000	2
82.193979	12.533124	0.000000	-0.269426	0.260684	0.000000	0.374895	-92.072608	0.000000	0.000000	0.000000	0.000000	0.000000	2
85.302971	12.533124	0.000000	-0.039758	0.054273	0.000000	0.067278	-85.625189	0.000000	0.000000	0.000000	0.000000	0.000000	1
88.411963	12.533124	0.000000	0.012433	0.043630	0.000000	0.045367	-24.770449	0.000000	0.000000	0.000000	0.000000	0.000000	2
91.520955	12.533124	0.000000	0.015726	0.037743	0.000000	0.040889	-2.993268	0.000000	0.000000	0.000000	0.000000	0.000000	2
94.629947	12.533124	0.000000	0.009469	0.012986	0.000000	0.016071	-8.678787	0.000000	0.000000	0.000000	0.000000	0.000000	1
97.738939	12.533124	0.000000	-0.003449	0.004326	0.000000	0.005533	-5.518403	0.000000	0.000000	0.000000	0.000000	0.000000	1
100.847931	12.533124	0.000000	-0.011181	0.011454	0.000000	0.016007	-1.196379	0.000000	0.000000	0.000000	0.000000	0.000000	1
103.956923	12.533124	0.000000	-0.011914	0.013688	0.000000	0.018147	-0.696461	0.000000	0.000000	0.000000	0.000000	0.000000	1
107.065915	12.533124	0.000000	0.007839	0.026751	0.000000	0.027876	-1.702151	0.000000	0.000000	0.000000	0.000000	0.000000	1
110.174908	12.533124	0.000000	0.005606	0.026673	0.000000	0.027256	-2.356325	0.000000	0.000000	0.000000	0.000000	0.000000	1
113.283900	12.533124	0.000000	-0.018156	0.017518	0.000000	0.025230	-3.168344	0.000000	0.000000	0.000000	0.000000	0.000000	1
116.392892	12.533124	0.000000	-0.002858	0.000652	0.000000	0.002932	-1.110819	0.000000	0.000000	0.000000	0.000000	0.000000	1
119.501884	12.533124	0.000000	-0.006024	0.003751	0.000000	0.007096	1.481842	0.000000	0.000000	0.000000	0.000000	0.000000	1
122.610876	12.533124	0.000000	-0.008172	0.009236	0.000000	0.012332	1.330686	0.000000	0.000000	0.000000	0.000000	0.000000	1
125.719868	12.533124	0.000000	-0.006849	0.011781	0.000000	0.013627	0.276268	0.000000	0.000000	0.000000	0.000000	0.000000	1
128.828860	12.533124	0.000000	-0.008579	0.010126	0.000000	0.013272	-0.284424	0.000000	0.000000	0.000000	0.000000	0.000000	1
131.937852	12.533124	0.000000	-0.010470	0.010302	0.000000	0.014689	-0.237438	0.000000	0.000000	0.000000	0.000000	0.000000	1
135.046844	12.533124	0.000000	-0.008763	0.008664	0.000000	0.012323	0.502713	0.000000	0.000000	0.000000	0.000000	0.000000	1
138.155836	12.533124	0.000000	-0.007194	0.012883	0.000000	0.014755	1.587543	0.000000	0.000000	0.000000	0.000000	0.000000	1
141.264829	12.533124	0.000000	-0.018127	0.019087	0.000000	0.026323	1.197003	0.000000	0.000000	0.000000	0.000000	0.000000	1
144.373821	12.533124	0.000000	-0.005557	0.019889	0.000000	0.020651	-1.960759	0.000000	0.000000	0.000000	0.000000	0.000000	1
147.482813	12.533124	0.000000	-0.010322	0.000852	0.000000	0.010357	-3.204017	0.000000	0.000000	0.000000	0.000000	0.000000	1
150.591805	12.533124	0.000000	-0.008075	0.000947	0.000000	0.008130	-1.704603	0.000000	0.000000	0.000000	0.000000	0.000000	1
153.700797	12.533124	0.000000	-0.002457	0.000786	0.000000	0.002579	-0.608887	0.000000	0.000000	0.000000	0.000000	0.000000	1
156.809789	12.533124	0.000000	-0.002351	0.002176	0.000000	0.003203	0.420795	0.000000	0.000000	0.000000	0.000000	0.000000	1
159.918781	12.533124	0.000000	-0.001754	0.002426	0.000000	0.002993	0.541325	0.000000	0.000000	0.000000	0.000000	0.000000	1
4.469176	15.642117	0.000000	-0.000872	0.003780	0.000000	0.003879	-0.556080	0.000000	0.000000	0.000000	0.000000	0.000000	1
7.578168	15.642117	0.000000	0.001397	0.003180	0.000000	0.003473	-0.576481	0.000000	0.000000	0.000000	0.000000	0.000000	1
10.687160	15.642117	0.000000	0.003942	0.001978	0.000000	0.004411	0.478279	0.000000	0.000000	0.000000	0.000000	0.000000	1
13.796152	15.642117	0.000000	0.002240	0.009679	0.000000	0.009935	0.635126	0.000000	0.000000	0.000000	0.000000	0.000000	1
16.905145	15.642117	0.000000	0.001664	0.003575	0.000000	0.003943	0.593628	0.000000	0.000000	0.000000	0.000000	0.000000	1
20.014137	15.642117	0.000000	0.006365	0.006658	0.000000	0.009211	0.683458	0.000000	0.000000	0.000000	0.000000	0.000000	1
23.123129	15.642117	0.000000	0.005991	0.006239	0.000000	0.008650	-0.725574	0.000000	0.000000	0.000000	0.000000	0.000000	1
26.232121	15.642117	0.000000	0.000979	0.001034	0.000000	0.001423	-1.016546	0.000000	0.000000	0.000000	0.000000	0.000000	1
29.341113	15.642117	0.000000	0.013790	0.003121	0.000000	0.014139	-0.794337	0.000000	0.000000	0.000000	0.000000	0.000000	1
32.450105	15.642117	0.000000	0.010394	0.004368	0.000000	0.011275	-0.376033	0.000000	0.000000	0.000000	0.000000	0.000000	1
35.559097	15.642117	0.000000	0.005591	0.007098	0.000000	0.009035	-0.297887	0.000000	0.000000	0.000000	0.000000	0.000000	1
38.668089	15.642117	0.000000	0.003381	0.004373	0.000000	0.005528	0.093090	0.000000	0.000000	0.000000	0.000000	0.000000	1
41.777081	15.642117	0.000000	0.002848	0.003079	0.000000	0.004194	11.608384	0.000000	0.000000	0.000000	0.000000	0.000000	1
44.886073	15.642117	0.000000	0.007133	0.006492	0.000000	0.009645	39.048930	0.000000	0.000000	0.000000	0.000000	0.000000	1
47.995066	15.642117	0.000000	-0.083030	0.067816	0.000000	0.107205	63.665635	0.000000	0.000000	0.000000	0.000000	0.000000	1
51.104058	15.642117	0.000000	-0.329262	0.237160	0.000000	0.405782	47.861670	0.000000	0.000000	0.000000	0.000000	0.000000	1
54.213050	15.642117	0.000000	-0.368964	0.247515	0.000000	0.444295	11.586729	0.000000	0.000000	0.000000	0.000000	0.000000	1
57.322042	15.642117	0.000000	-0.533086	0.176853	0.000000	0.561657	17.623926	0.000000	0.000000	0.000000	0.000000	0.000000	1
60.431034	15.642117	0.000000	-0.582487	0.214212	0.000000	0.620627	35.381806	0.000000	0.000000	0.000000	0.000000	0.000000	1
63.540026	15.642117	0.000000	-0.450552	0.335825	0.000000	0.561940	25.437013	0.000000	0.000000	0.000000	0.000000	0.000000	1
66.649018	15.642117	0.000000	-0.357719	0.429606	0.000000	0.559038	53.300716	0.000000	0.000000	0.000000	0.000000	0.000000	1
69.758010	15.642117	0.000000	-0.416401	0.664173	0.000000	0.783910	54.539477	0.000000	0.000000	0.000000	0.000000	0.000000	1
72.867002	15.642117	0.000000	-0.401735	0.717850	0.000000	0.822617	-25.278826	0.000000	0.000000	0.000000	0.000000	0.000000	1
75.975994	15.642117	0.000000	-0.274451	0.541535	0.000000	0.607111	-86.664957	0.000000	0.000000	0.000000	0.000000	0.000000	1
79.084987	15.642117	0.000000	-0.225898	0.369852	0.000000	0.433383	-106.792775	0.000000	0.000000	0.000000	0.000000	0.000000	1
82.193979	15.642117	0.000000	-0.092082	0.119396	0.000000	0.150780	-81.374408	0.000000	0.000000	0.000000	0.000000	0.000000	2
85.302971	15.642117	0.000000	-0.013588	0.028977	0.000000	0.032005	-25.639601	0.000000	0.000000	0.000000	0.000000	0.000000	1
88.411963	15.642117	0.000000	-0.000091	0.037169	0.000000	0.037169	4.342339	0.000000	0.000000	0.000000	0.000000	0.000000	1
91.520955	15.642117	0.000000	0.018100	0.065372	0.000000	0.067831	1.659623	0.000000	0.000000	0.000000	0.000000	0.000000	2
94.629947	15.642117	0.000000	0.016646	0.056774	0.000000	0.059164	-6.482218	0.000000	0.000000	0.000000	0.000000	0.000000	2
97.738939	15.642117	0.000000	0.001579	0.010290	0.000000	0.010411	-6.372230	0.000000	0.000000	0.000000	0.000000	0.000000	1
100.847931	15.642117	0.000000	-0.003415	0.012060	0.000000	0.012534	0.186342	0.000000	0.000000	0.000000	0.000000	0.000000	1
103.956923	15.642117	0.000000	0.009158	0.051946	0.000000	0.052747	1.397311	0.000000	0.000000	0.000000	0.000000	0.000000	1
107.065915	15.642117	0.000000	0.009987	0.046741	0.000000	0.047796	-1.916199	0.000000	0.000000	0.000000	0.000000	0.000000	1
110.174908	15.642117	0.000000	0.003788	0.037985	0.000000	0.038173	-5.315393	0.000000	0.000000	0.000000	0.000000	0.000000	1
113.283900	15.642117	0.000000	-0.012640	0.022686	0.000000	0.025970	-9.641679	0.000000	0.000000	0.000000	0.000000	0.000000	1
116.392892	15.642117	0.000000	-0.010843	-0.000184	0.000000	0.010845	-8.736208	0.000000	0.000000	0.000000	0.000000	0.000000	1
119.501884	15.642117	0.000000	-0.004063	0.004697	0.000000	0.006210	-1.422571	0.000000	0.000000	0.000000	0.000000	0.000000	1