TITLE = "PIV Result  983 "
VARIABLES = "X (mm)""Y (mm)""Z (mm)""U (m/s)""V (m/s)""W (m/s)""Speed (m/s)""Vorticity""U-std""V-std""W-std""Speed-std""Vorticity-std""Flag"
ZONE T="ZONE 983 "
I= 51 , J= 16 , K= 1 , F=POINT
DT=(DOUBLE DOUBLE DOUBLE DOUBLE DOUBLE DOUBLE DOUBLE DOUBLE DOUBLE DOUBLE DOUBLE DOUBLE DOUBLE DOUBLE)
4.469176	3.206148	0.000000	0.003874	0.012093	0.000000	0.012698	-0.700036	0.000000	0.000000	0.000000	0.000000	0.000000	1
7.578168	3.206148	0.000000	0.004313	0.009979	0.000000	0.010872	-0.102078	0.000000	0.000000	0.000000	0.000000	0.000000	1
10.687160	3.206148	0.000000	-0.001493	0.009528	0.000000	0.009645	0.810051	0.000000	0.000000	0.000000	0.000000	0.000000	1
13.796152	3.206148	0.000000	0.002107	0.010862	0.000000	0.011064	0.704736	0.000000	0.000000	0.000000	0.000000	0.000000	1
16.905145	3.206148	0.000000	0.002282	0.008514	0.000000	0.008815	-0.298302	0.000000	0.000000	0.000000	0.000000	0.000000	1
20.014137	3.206148	0.000000	0.000546	0.008700	0.000000	0.008717	-0.349564	0.000000	0.000000	0.000000	0.000000	0.000000	1
23.123129	3.206148	0.000000	-0.001307	0.010670	0.000000	0.010750	0.332283	0.000000	0.000000	0.000000	0.000000	0.000000	1
26.232121	3.206148	0.000000	0.001283	0.013356	0.000000	0.013418	-0.452957	0.000000	0.000000	0.000000	0.000000	0.000000	1
29.341113	3.206148	0.000000	0.002788	0.009626	0.000000	0.010022	-0.446363	0.000000	0.000000	0.000000	0.000000	0.000000	1
32.450105	3.206148	0.000000	0.010150	0.010136	0.000000	0.014344	-0.541249	0.000000	0.000000	0.000000	0.000000	0.000000	1
35.559097	3.206148	0.000000	0.006735	-0.000479	0.000000	0.006752	-1.149709	0.000000	0.000000	0.000000	0.000000	0.000000	1
38.668089	3.206148	0.000000	0.001714	0.000583	0.000000	0.001810	-0.778050	0.000000	0.000000	0.000000	0.000000	0.000000	1
41.777081	3.206148	0.000000	-0.003751	0.000909	0.000000	0.003859	-1.153664	0.000000	0.000000	0.000000	0.000000	0.000000	1
44.886073	3.206148	0.000000	-0.000705	-0.000936	0.000000	0.001172	-1.417167	0.000000	0.000000	0.000000	0.000000	0.000000	1
47.995066	3.206148	0.000000	0.001523	-0.000447	0.000000	0.001587	-0.867226	0.000000	0.000000	0.000000	0.000000	0.000000	1
51.104058	3.206148	0.000000	-0.001735	0.000957	0.000000	0.001982	-1.025730	0.000000	0.000000	0.000000	0.000000	0.000000	1
54.213050	3.206148	0.000000	-0.005497	0.000243	0.000000	0.005503	18.866190	0.000000	0.000000	0.000000	0.000000	0.000000	1
57.322042	3.206148	0.000000	-0.002780	-0.005370	0.000000	0.006047	62.355209	0.000000	0.000000	0.000000	0.000000	0.000000	1
60.431034	3.206148	0.000000	-0.137111	0.083484	0.000000	0.160527	89.682571	0.000000	0.000000	0.000000	0.000000	0.000000	2
63.540026	3.206148	0.000000	-0.193205	0.120712	0.000000	0.227815	122.934436	0.000000	0.000000	0.000000	0.000000	0.000000	2
66.649018	3.206148	0.000000	-0.361787	0.277059	0.000000	0.455688	139.174900	0.000000	0.000000	0.000000	0.000000	0.000000	2
69.758010	3.206148	0.000000	-0.474274	0.668400	0.000000	0.819570	67.863630	0.000000	0.000000	0.000000	0.000000	0.000000	2
72.867002	3.206148	0.000000	-0.779858	0.684857	0.000000	1.037887	-36.439656	0.000000	0.000000	0.000000	0.000000	0.000000	2
75.975994	3.206148	0.000000	-0.546494	0.632069	0.000000	0.835563	-120.949026	0.000000	0.000000	0.000000	0.000000	0.000000	1
79.084987	3.206148	0.000000	-0.293440	0.117778	0.000000	0.316195	-116.568056	0.000000	0.000000	0.000000	0.000000	0.000000	1
82.193979	3.206148	0.000000	-0.145535	0.000064	0.000000	0.145535	-48.165735	0.000000	0.000000	0.000000	0.000000	0.000000	1
85.302971	3.206148	0.000000	-0.010880	-0.021117	0.000000	0.023755	-8.975175	0.000000	0.000000	0.000000	0.000000	0.000000	1
88.411963	3.206148	0.000000	0.002024	0.004863	0.000000	0.005268	1.639853	0.000000	0.000000	0.000000	0.000000	0.000000	1
91.520955	3.206148	0.000000	-0.009593	0.009601	0.000000	0.013572	-0.951027	0.000000	0.000000	0.000000	0.000000	0.000000	1
94.629947	3.206148	0.000000	-0.008824	0.022514	0.000000	0.024181	-2.902571	0.000000	0.000000	0.000000	0.000000	0.000000	1
97.738939	3.206148	0.000000	-0.004153	0.000122	0.000000	0.004155	-2.239529	0.000000	0.000000	0.000000	0.000000	0.000000	1
100.847931	3.206148	0.000000	-0.004985	-0.000524	0.000000	0.005013	-2.174431	0.000000	0.000000	0.000000	0.000000	0.000000	1
103.956923	3.206148	0.000000	0.008237	0.000475	0.000000	0.008251	-7.820654	0.000000	0.000000	0.000000	0.000000	0.000000	1
107.065915	3.206148	0.000000	0.012707	0.001465	0.000000	0.012792	-7.415556	0.000000	0.000000	0.000000	0.000000	0.000000	1
110.174908	3.206148	0.000000	0.006418	-0.000262	0.000000	0.006424	-4.550418	0.000000	0.000000	0.000000	0.000000	0.000000	1
113.283900	3.206148	0.000000	0.000810	-0.001186	0.000000	0.001436	-1.630236	0.000000	0.000000	0.000000	0.000000	0.000000	1
116.392892	3.206148	0.000000	-0.000659	-0.000245	0.000000	0.000703	0.690617	0.000000	0.000000	0.000000	0.000000	0.000000	1
119.501884	3.206148	0.000000	-0.000405	-0.000375	0.000000	0.000552	0.362498	0.000000	0.000000	0.000000	0.000000	0.000000	1
122.610876	3.206148	0.000000	-0.000703	-0.000954	0.000000	0.001185	0.439756	0.000000	0.000000	0.000000	0.000000	0.000000	1
125.719868	3.206148	0.000000	-0.001707	-0.001411	0.000000	0.002214	0.513094	0.000000	0.000000	0.000000	0.000000	0.000000	1
128.828860	3.206148	0.000000	-0.002327	-0.000388	0.000000	0.002359	0.605711	0.000000	0.000000	0.000000	0.000000	0.000000	1
131.937852	3.206148	0.000000	-0.000595	0.000491	0.000000	0.000772	0.947992	0.000000	0.000000	0.000000	0.000000	0.000000	1
135.046844	3.206148	0.000000	-0.000041	0.004282	0.000000	0.004282	0.667331	0.000000	0.000000	0.000000	0.000000	0.000000	1
138.155836	3.206148	0.000000	-0.008803	0.010271	0.000000	0.013527	-0.749609	0.000000	0.000000	0.000000	0.000000	0.000000	1
141.264829	3.206148	0.000000	-0.010757	0.012725	0.000000	0.016662	-1.153576	0.000000	0.000000	0.000000	0.000000	0.000000	1
144.373821	3.206148	0.000000	0.001289	0.008442	0.000000	0.008540	-0.220517	0.000000	0.000000	0.000000	0.000000	0.000000	1
147.482813	3.206148	0.000000	-0.000612	0.010779	0.000000	0.010796	-0.898533	0.000000	0.000000	0.000000	0.000000	0.000000	1
150.591805	3.206148	0.000000	-0.008934	0.009602	0.000000	0.013115	-2.634579	0.000000	0.000000	0.000000	0.000000	0.000000	1
153.700797	3.206148	0.000000	-0.003654	0.001521	0.000000	0.003958	-1.448912	0.000000	0.000000	0.000000	0.000000	0.000000	1
156.809789	3.206148	0.000000	-0.011400	0.005778	0.000000	0.012781	-0.484888	0.000000	0.000000	0.000000	0.000000	0.000000	1
159.918781	3.206148	0.000000	-0.010677	0.005950	0.000000	0.012223	-1.262175	0.000000	0.000000	0.000000	0.000000	0.000000	2
4.469176	6.315140	0.000000	0.003713	0.007356	0.000000	0.008240	-0.776827	0.000000	0.000000	0.000000	0.000000	0.000000	1
7.578168	6.315140	0.000000	0.003457	0.004101	0.000000	0.005364	-0.018920	0.000000	0.000000	0.000000	0.000000	0.000000	1
10.687160	6.315140	0.000000	-0.001497	0.006775	0.000000	0.006939	1.068695	0.000000	0.000000	0.000000	0.000000	0.000000	1
13.796152	6.315140	0.000000	0.001616	0.011938	0.000000	0.012046	1.052057	0.000000	0.000000	0.000000	0.000000	0.000000	1
16.905145	6.315140	0.000000	0.002517	0.015802	0.000000	0.016001	-0.156817	0.000000	0.000000	0.000000	0.000000	0.000000	1
20.014137	6.315140	0.000000	0.001050	0.010871	0.000000	0.010922	-0.634638	0.000000	0.000000	0.000000	0.000000	0.000000	1
23.123129	6.315140	0.000000	-0.000215	0.011633	0.000000	0.011635	-0.268974	0.000000	0.000000	0.000000	0.000000	0.000000	1
26.232121	6.315140	0.000000	0.001899	0.013650	0.000000	0.013782	-0.578858	0.000000	0.000000	0.000000	0.000000	0.000000	1
29.341113	6.315140	0.000000	0.002672	0.009252	0.000000	0.009630	0.133729	0.000000	0.000000	0.000000	0.000000	0.000000	1
32.450105	6.315140	0.000000	0.008376	0.009931	0.000000	0.012991	0.715707	0.000000	0.000000	0.000000	0.000000	0.000000	1
35.559097	6.315140	0.000000	0.006444	0.008672	0.000000	0.010804	-0.414761	0.000000	0.000000	0.000000	0.000000	0.000000	1
38.668089	6.315140	0.000000	-0.000021	0.001096	0.000000	0.001096	-1.046821	0.000000	0.000000	0.000000	0.000000	0.000000	1
41.777081	6.315140	0.000000	-0.000333	-0.002735	0.000000	0.002755	-0.271695	0.000000	0.000000	0.000000	0.000000	0.000000	1
44.886073	6.315140	0.000000	0.000694	-0.005232	0.000000	0.005278	0.314279	0.000000	0.000000	0.000000	0.000000	0.000000	1
47.995066	6.315140	0.000000	0.006940	-0.007370	0.000000	0.010123	0.746180	0.000000	0.000000	0.000000	0.000000	0.000000	1
51.104058	6.315140	0.000000	0.004328	0.000385	0.000000	0.004345	1.772439	0.000000	0.000000	0.000000	0.000000	0.000000	2
54.213050	6.315140	0.000000	-0.003338	-0.001113	0.000000	0.003518	27.125821	0.000000	0.000000	0.000000	0.000000	0.000000	2
57.322042	6.315140	0.000000	-0.169129	0.085366	0.000000	0.189452	73.173675	0.000000	0.000000	0.000000	0.000000	0.000000	2
60.431034	6.315140	0.000000	-0.339728	0.157939	0.000000	0.374646	102.463507	0.000000	0.000000	0.000000	0.000000	0.000000	1
63.540026	6.315140	0.000000	-0.420957	0.275241	0.000000	0.502954	138.431005	0.000000	0.000000	0.000000	0.000000	0.000000	2
66.649018	6.315140	0.000000	-0.561357	0.635486	0.000000	0.847918	114.628372	0.000000	0.000000	0.000000	0.000000	0.000000	1
69.758010	6.315140	0.000000	-0.604398	0.701314	0.000000	0.925818	-1.055474	0.000000	0.000000	0.000000	0.000000	0.000000	1
72.867002	6.315140	0.000000	-0.729903	0.661775	0.000000	0.985244	-105.865030	0.000000	0.000000	0.000000	0.000000	0.000000	2
75.975994	6.315140	0.000000	-0.451983	0.348779	0.000000	0.570908	-145.703000	0.000000	0.000000	0.000000	0.000000	0.000000	2
79.084987	6.315140	0.000000	-0.152772	0.104377	0.000000	0.185024	-101.753268	0.000000	0.000000	0.000000	0.000000	0.000000	2
82.193979	6.315140	0.000000	-0.040966	0.011560	0.000000	0.042566	-37.692030	0.000000	0.000000	0.000000	0.000000	0.000000	2
85.302971	6.315140	0.000000	-0.011673	-0.006702	0.000000	0.013460	-6.906395	0.000000	0.000000	0.000000	0.000000	0.000000	1
88.411963	6.315140	0.000000	0.004330	0.000434	0.000000	0.004351	0.202030	0.000000	0.000000	0.000000	0.000000	0.000000	1
91.520955	6.315140	0.000000	0.003595	-0.000022	0.000000	0.003595	-1.250133	0.000000	0.000000	0.000000	0.000000	0.000000	1
94.629947	6.315140	0.000000	0.000977	0.009439	0.000000	0.009490	-1.509159	0.000000	0.000000	0.000000	0.000000	0.000000	1
97.738939	6.315140	0.000000	-0.013915	-0.003611	0.000000	0.014376	-4.511885	0.000000	0.000000	0.000000	0.000000	0.000000	1
100.847931	6.315140	0.000000	-0.010342	-0.010454	0.000000	0.014705	-9.101967	0.000000	0.000000	0.000000	0.000000	0.000000	1
103.956923	6.315140	0.000000	0.045224	-0.014495	0.000000	0.047490	-9.060767	0.000000	0.000000	0.000000	0.000000	0.000000	1
107.065915	6.315140	0.000000	0.042777	-0.011014	0.000000	0.044172	-0.738532	0.000000	0.000000	0.000000	0.000000	0.000000	1
110.174908	6.315140	0.000000	0.026656	0.011386	0.000000	0.028986	1.550199	0.000000	0.000000	0.000000	0.000000	0.000000	1
113.283900	6.315140	0.000000	-0.004086	0.000694	0.000000	0.004145	-1.344257	0.000000	0.000000	0.000000	0.000000	0.000000	1
116.392892	6.315140	0.000000	-0.001740	0.000458	0.000000	0.001799	-0.331926	0.000000	0.000000	0.000000	0.000000	0.000000	1
119.501884	6.315140	0.000000	-0.001461	0.000356	0.000000	0.001504	0.453071	0.000000	0.000000	0.000000	0.000000	0.000000	1
122.610876	6.315140	0.000000	-0.003475	-0.000291	0.000000	0.003487	0.295503	0.000000	0.000000	0.000000	0.000000	0.000000	1
125.719868	6.315140	0.000000	-0.002135	-0.000166	0.000000	0.002141	0.528780	0.000000	0.000000	0.000000	0.000000	0.000000	1
128.828860	6.315140	0.000000	-0.002258	0.001966	0.000000	0.002994	0.842267	0.000000	0.000000	0.000000	0.000000	0.000000	1
131.937852	6.315140	0.000000	-0.002727	0.003043	0.000000	0.004086	0.956422	0.000000	0.000000	0.000000	0.000000	0.000000	1
135.046844	6.315140	0.000000	-0.001263	0.003669	0.000000	0.003880	0.663531	0.000000	0.000000	0.000000	0.000000	0.000000	1
138.155836	6.315140	0.000000	-0.002592	0.003197	0.000000	0.004116	0.223495	0.000000	0.000000	0.000000	0.000000	0.000000	1
141.264829	6.315140	0.000000	-0.004209	0.003651	0.000000	0.005572	0.854331	0.000000	0.000000	0.000000	0.000000	0.000000	1
144.373821	6.315140	0.000000	0.000419	0.009116	0.000000	0.009126	1.494631	0.000000	0.000000	0.000000	0.000000	0.000000	1
147.482813	6.315140	0.000000	0.000579	0.008853	0.000000	0.008872	0.313224	0.000000	0.000000	0.000000	0.000000	0.000000	1
150.591805	6.315140	0.000000	0.000062	0.007291	0.000000	0.007291	-1.278070	0.000000	0.000000	0.000000	0.000000	0.000000	1
153.700797	6.315140	0.000000	-0.004049	0.004136	0.000000	0.005788	-1.029851	0.000000	0.000000	0.000000	0.000000	0.000000	1
156.809789	6.315140	0.000000	-0.008142	0.004560	0.000000	0.009332	-1.008777	0.000000	0.000000	0.000000	0.000000	0.000000	1
159.918781	6.315140	0.000000	-0.007980	0.002494	0.000000	0.008361	-1.736704	0.000000	0.000000	0.000000	0.000000	0.000000	1
4.469176	9.424132	0.000000	0.002455	0.010027	0.000000	0.010323	-0.070446	0.000000	0.000000	0.000000	0.000000	0.000000	1
7.578168	9.424132	0.000000	0.000662	0.003921	0.000000	0.003977	0.365516	0.000000	0.000000	0.000000	0.000000	0.000000	1
10.687160	9.424132	0.000000	-0.000881	0.005174	0.000000	0.005249	1.127065	0.000000	0.000000	0.000000	0.000000	0.000000	1
13.796152	9.424132	0.000000	0.000811	0.010224	0.000000	0.010256	1.023296	0.000000	0.000000	0.000000	0.000000	0.000000	1
16.905145	9.424132	0.000000	0.001108	0.011149	0.000000	0.011204	-0.103141	0.000000	0.000000	0.000000	0.000000	0.000000	1
20.014137	9.424132	0.000000	0.002436	0.008863	0.000000	0.009192	-0.191134	0.000000	0.000000	0.000000	0.000000	0.000000	1
23.123129	9.424132	0.000000	0.004538	0.009996	0.000000	0.010978	-0.378422	0.000000	0.000000	0.000000	0.000000	0.000000	1
26.232121	9.424132	0.000000	0.000529	0.004784	0.000000	0.004813	-0.929833	0.000000	0.000000	0.000000	0.000000	0.000000	1
29.341113	9.424132	0.000000	0.000674	0.003626	0.000000	0.003688	-1.212063	0.000000	0.000000	0.000000	0.000000	0.000000	1
32.450105	9.424132	0.000000	0.001080	0.004717	0.000000	0.004839	-1.974174	0.000000	0.000000	0.000000	0.000000	0.000000	1
35.559097	9.424132	0.000000	0.001277	0.006980	0.000000	0.007096	-1.786733	0.000000	0.000000	0.000000	0.000000	0.000000	1
38.668089	9.424132	0.000000	-0.000330	-0.000407	0.000000	0.000524	-1.437160	0.000000	0.000000	0.000000	0.000000	0.000000	1
41.777081	9.424132	0.000000	-0.009490	-0.012915	0.000000	0.016027	-0.503356	0.000000	0.000000	0.000000	0.000000	0.000000	1
44.886073	9.424132	0.000000	-0.006172	-0.011977	0.000000	0.013474	0.381921	0.000000	0.000000	0.000000	0.000000	0.000000	1
47.995066	9.424132	0.000000	0.004521	-0.008148	0.000000	0.009318	3.236922	0.000000	0.000000	0.000000	0.000000	0.000000	1
51.104058	9.424132	0.000000	0.005263	0.000980	0.000000	0.005353	14.598468	0.000000	0.000000	0.000000	0.000000	0.000000	2
54.213050	9.424132	0.000000	-0.030550	0.014674	0.000000	0.033892	47.978529	0.000000	0.000000	0.000000	0.000000	0.000000	1
57.322042	9.424132	0.000000	-0.270623	0.201070	0.000000	0.337144	96.326119	0.000000	0.000000	0.000000	0.000000	0.000000	2
60.431034	9.424132	0.000000	-0.482380	0.527298	0.000000	0.714656	91.983984	0.000000	0.000000	0.000000	0.000000	0.000000	2
63.540026	9.424132	0.000000	-0.765575	0.712960	0.000000	1.046144	61.997549	0.000000	0.000000	0.000000	0.000000	0.000000	1
66.649018	9.424132	0.000000	-0.775455	0.918007	0.000000	1.201694	-7.323713	0.000000	0.000000	0.000000	0.000000	0.000000	1
69.758010	9.424132	0.000000	-0.552023	0.686705	0.000000	0.881075	-106.730540	0.000000	0.000000	0.000000	0.000000	0.000000	1
72.867002	9.424132	0.000000	-0.314289	0.327781	0.000000	0.454113	-148.948989	0.000000	0.000000	0.000000	0.000000	0.000000	1
75.975994	9.424132	0.000000	-0.095634	0.099281	0.000000	0.137850	-120.607816	0.000000	0.000000	0.000000	0.000000	0.000000	1
79.084987	9.424132	0.000000	-0.017771	0.028690	0.000000	0.033747	-53.661691	0.000000	0.000000	0.000000	0.000000	0.000000	1
82.193979	9.424132	0.000000	-0.005842	0.016808	0.000000	0.017794	-16.384223	0.000000	0.000000	0.000000	0.000000	0.000000	1
85.302971	9.424132	0.000000	-0.012761	0.005442	0.000000	0.013873	-5.937578	0.000000	0.000000	0.000000	0.000000	0.000000	1
88.411963	9.424132	0.000000	0.011518	0.007908	0.000000	0.013971	-5.428293	0.000000	0.000000	0.000000	0.000000	0.000000	1
91.520955	9.424132	0.000000	0.008315	0.001400	0.000000	0.008432	-4.255895	0.000000	0.000000	0.000000	0.000000	0.000000	1
94.629947	9.424132	0.000000	0.003701	-0.001012	0.000000	0.003837	1.457732	0.000000	0.000000	0.000000	0.000000	0.000000	1
97.738939	9.424132	0.000000	0.001463	0.029095	0.000000	0.029132	-0.781421	0.000000	0.000000	0.000000	0.000000	0.000000	1
100.847931	9.424132	0.000000	0.056093	0.034427	0.000000	0.065815	-7.773210	0.000000	0.000000	0.000000	0.000000	0.000000	2
103.956923	9.424132	0.000000	0.062419	0.006080	0.000000	0.062714	-4.909996	0.000000	0.000000	0.000000	0.000000	0.000000	2
107.065915	9.424132	0.000000	0.027266	-0.007799	0.000000	0.028360	6.220632	0.000000	0.000000	0.000000	0.000000	0.000000	1
110.174908	9.424132	0.000000	0.013734	0.027302	0.000000	0.030562	7.801924	0.000000	0.000000	0.000000	0.000000	0.000000	1
113.283900	9.424132	0.000000	-0.006484	0.031887	0.000000	0.032540	-1.724808	0.000000	0.000000	0.000000	0.000000	0.000000	1
116.392892	9.424132	0.000000	-0.004878	0.004216	0.000000	0.006447	-2.891343	0.000000	0.000000	0.000000	0.000000	0.000000	1
119.501884	9.424132	0.000000	-0.004386	0.003782	0.000000	0.005791	0.272387	0.000000	0.000000	0.000000	0.000000	0.000000	1
122.610876	9.424132	0.000000	-0.004392	0.001820	0.000000	0.004754	0.514307	0.000000	0.000000	0.000000	0.000000	0.000000	1
125.719868	9.424132	0.000000	-0.002970	0.000591	0.000000	0.003028	0.690373	0.000000	0.000000	0.000000	0.000000	0.000000	1
128.828860	9.424132	0.000000	-0.003722	0.002283	0.000000	0.004366	0.507221	0.000000	0.000000	0.000000	0.000000	0.000000	1
131.937852	9.424132	0.000000	-0.005365	0.004398	0.000000	0.006937	1.016913	0.000000	0.000000	0.000000	0.000000	0.000000	1
135.046844	9.424132	0.000000	-0.001943	0.005159	0.000000	0.005513	1.306904	0.000000	0.000000	0.000000	0.000000	0.000000	1
138.155836	9.424132	0.000000	-0.007227	0.003814	0.000000	0.008171	1.347175	0.000000	0.000000	0.000000	0.000000	0.000000	1
141.264829	9.424132	0.000000	-0.009404	0.004913	0.000000	0.010610	1.988908	0.000000	0.000000	0.000000	0.000000	0.000000	1
144.373821	9.424132	0.000000	-0.010520	0.007527	0.000000	0.012935	1.513110	0.000000	0.000000	0.000000	0.000000	0.000000	1
147.482813	9.424132	0.000000	-0.005909	0.006069	0.000000	0.008470	0.341981	0.000000	0.000000	0.000000	0.000000	0.000000	1
150.591805	9.424132	0.000000	-0.001233	0.003108	0.000000	0.003344	-0.039335	0.000000	0.000000	0.000000	0.000000	0.000000	1
153.700797	9.424132	0.000000	-0.003657	0.003075	0.000000	0.004778	-0.461996	0.000000	0.000000	0.000000	0.000000	0.000000	1
156.809789	9.424132	0.000000	-0.004621	0.001253	0.000000	0.004787	-1.120874	0.000000	0.000000	0.000000	0.000000	0.000000	1
159.918781	9.424132	0.000000	-0.001582	-0.000511	0.000000	0.001662	-1.452785	0.000000	0.000000	0.000000	0.000000	0.000000	1
4.469176	12.533124	0.000000	0.001396	0.001048	0.000000	0.001745	1.582721	0.000000	0.000000	0.000000	0.000000	0.000000	1
7.578168	12.533124	0.000000	-0.001331	0.008533	0.000000	0.008637	0.696356	0.000000	0.000000	0.000000	0.000000	0.000000	1
10.687160	12.533124	0.000000	-0.002498	0.007531	0.000000	0.007934	0.068121	0.000000	0.000000	0.000000	0.000000	0.000000	1
13.796152	12.533124	0.000000	-0.000418	0.007300	0.000000	0.007312	0.145762	0.000000	0.000000	0.000000	0.000000	0.000000	1
16.905145	12.533124	0.000000	0.003339	0.007761	0.000000	0.008448	-0.117763	0.000000	0.000000	0.000000	0.000000	0.000000	1
20.014137	12.533124	0.000000	-0.001489	0.005594	0.000000	0.005789	0.582589	0.000000	0.000000	0.000000	0.000000	0.000000	1
23.123129	12.533124	0.000000	0.002938	0.008379	0.000000	0.008879	0.400903	0.000000	0.000000	0.000000	0.000000	0.000000	1
26.232121	12.533124	0.000000	0.002246	0.005677	0.000000	0.006105	-0.716967	0.000000	0.000000	0.000000	0.000000	0.000000	1
29.341113	12.533124	0.000000	0.001122	0.002669	0.000000	0.002895	-4.249919	0.000000	0.000000	0.000000	0.000000	0.000000	1
32.450105	12.533124	0.000000	0.017621	-0.014125	0.000000	0.022584	-3.784608	0.000000	0.000000	0.000000	0.000000	0.000000	1
35.559097	12.533124	0.000000	0.023128	-0.018937	0.000000	0.029892	3.372790	0.000000	0.000000	0.000000	0.000000	0.000000	1
38.668089	12.533124	0.000000	-0.006519	-0.003369	0.000000	0.007338	3.337609	0.000000	0.000000	0.000000	0.000000	0.000000	1
41.777081	12.533124	0.000000	-0.008769	-0.008233	0.000000	0.012028	-0.804364	0.000000	0.000000	0.000000	0.000000	0.000000	1
44.886073	12.533124	0.000000	-0.002068	-0.012552	0.000000	0.012722	-0.330835	0.000000	0.000000	0.000000	0.000000	0.000000	1
47.995066	12.533124	0.000000	0.008121	-0.016414	0.000000	0.018313	11.619175	0.000000	0.000000	0.000000	0.000000	0.000000	1
51.104058	12.533124	0.000000	-0.012228	0.019468	0.000000	0.022990	44.284578	0.000000	0.000000	0.000000	0.000000	0.000000	2
54.213050	12.533124	0.000000	-0.111982	0.154204	0.000000	0.190575	73.700747	0.000000	0.000000	0.000000	0.000000	0.000000	2
57.322042	12.533124	0.000000	-0.303011	0.359905	0.000000	0.470475	87.410530	0.000000	0.000000	0.000000	0.000000	0.000000	1
60.431034	12.533124	0.000000	-0.511300	0.817750	0.000000	0.964439	44.559696	0.000000	0.000000	0.000000	0.000000	0.000000	2
63.540026	12.533124	0.000000	-0.570687	0.807321	0.000000	0.988662	-50.999679	0.000000	0.000000	0.000000	0.000000	0.000000	2
66.649018	12.533124	0.000000	-0.614103	0.577009	0.000000	0.842651	-115.060782	0.000000	0.000000	0.000000	0.000000	0.000000	1
69.758010	12.533124	0.000000	-0.270518	0.330262	0.000000	0.426911	-112.802703	0.000000	0.000000	0.000000	0.000000	0.000000	1
72.867002	12.533124	0.000000	-0.156149	0.265341	0.000000	0.307877	-86.731392	0.000000	0.000000	0.000000	0.000000	0.000000	1
75.975994	12.533124	0.000000	-0.004932	0.081427	0.000000	0.081576	-50.762778	0.000000	0.000000	0.000000	0.000000	0.000000	1
79.084987	12.533124	0.000000	0.005151	0.046945	0.000000	0.047227	-11.427436	0.000000	0.000000	0.000000	0.000000	0.000000	1
82.193979	12.533124	0.000000	-0.013506	0.039275	0.000000	0.041533	-1.290594	0.000000	0.000000	0.000000	0.000000	0.000000	1
85.302971	12.533124	0.000000	0.030251	0.051778	0.000000	0.059967	-1.478076	0.000000	0.000000	0.000000	0.000000	0.000000	2
88.411963	12.533124	0.000000	0.036882	0.064382	0.000000	0.074197	-4.965532	0.000000	0.000000	0.000000	0.000000	0.000000	1
91.520955	12.533124	0.000000	0.006477	0.028079	0.000000	0.028816	-6.031483	0.000000	0.000000	0.000000	0.000000	0.000000	1
94.629947	12.533124	0.000000	0.001719	0.006424	0.000000	0.006650	2.455647	0.000000	0.000000	0.000000	0.000000	0.000000	1
97.738939	12.533124	0.000000	0.011647	0.042463	0.000000	0.044031	6.277592	0.000000	0.000000	0.000000	0.000000	0.000000	1
100.847931	12.533124	0.000000	0.041835	0.040045	0.000000	0.057912	3.675104	0.000000	0.000000	0.000000	0.000000	0.000000	2
103.956923	12.533124	0.000000	0.047651	0.038386	0.000000	0.061189	2.630873	0.000000	0.000000	0.000000	0.000000	0.000000	1
107.065915	12.533124	0.000000	0.005495	0.022688	0.000000	0.023344	3.754196	0.000000	0.000000	0.000000	0.000000	0.000000	2
110.174908	12.533124	0.000000	0.001247	0.027235	0.000000	0.027263	4.761742	0.000000	0.000000	0.000000	0.000000	0.000000	1
113.283900	12.533124	0.000000	-0.007767	0.033876	0.000000	0.034755	-2.424230	0.000000	0.000000	0.000000	0.000000	0.000000	1
116.392892	12.533124	0.000000	-0.004772	0.005634	0.000000	0.007383	-3.548021	0.000000	0.000000	0.000000	0.000000	0.000000	1
119.501884	12.533124	0.000000	-0.005182	0.005043	0.000000	0.007231	0.876849	0.000000	0.000000	0.000000	0.000000	0.000000	1
122.610876	12.533124	0.000000	-0.005144	0.005804	0.000000	0.007756	1.992030	0.000000	0.000000	0.000000	0.000000	0.000000	1
125.719868	12.533124	0.000000	-0.008099	0.011714	0.000000	0.014241	1.875379	0.000000	0.000000	0.000000	0.000000	0.000000	1
128.828860	12.533124	0.000000	-0.004269	0.004181	0.000000	0.005976	0.046821	0.000000	0.000000	0.000000	0.000000	0.000000	1
131.937852	12.533124	0.000000	-0.003754	0.002493	0.000000	0.004506	0.967440	0.000000	0.000000	0.000000	0.000000	0.000000	1
135.046844	12.533124	0.000000	-0.010116	0.009101	0.000000	0.013608	1.202173	0.000000	0.000000	0.000000	0.000000	0.000000	1
138.155836	12.533124	0.000000	-0.012008	0.007862	0.000000	0.014352	-0.275331	0.000000	0.000000	0.000000	0.000000	0.000000	1
141.264829	12.533124	0.000000	-0.013470	0.006172	0.000000	0.014817	-0.487475	0.000000	0.000000	0.000000	0.000000	0.000000	1
144.373821	12.533124	0.000000	-0.010283	0.005346	0.000000	0.011589	-0.648968	0.000000	0.000000	0.000000	0.000000	0.000000	1
147.482813	12.533124	0.000000	-0.002593	0.002457	0.000000	0.003572	-0.190441	0.000000	0.000000	0.000000	0.000000	0.000000	1
150.591805	12.533124	0.000000	-0.002859	0.004548	0.000000	0.005372	0.117572	0.000000	0.000000	0.000000	0.000000	0.000000	1
153.700797	12.533124	0.000000	-0.005901	0.001318	0.000000	0.006046	-0.392660	0.000000	0.000000	0.000000	0.000000	0.000000	1
156.809789	12.533124	0.000000	-0.001974	-0.000960	0.000000	0.002195	-0.316415	0.000000	0.000000	0.000000	0.000000	0.000000	1
159.918781	12.533124	0.000000	-0.001097	-0.000382	0.000000	0.001162	-0.086477	0.000000	0.000000	0.000000	0.000000	0.000000	1
4.469176	15.642117	0.000000	0.001403	0.001176	0.000000	0.001831	1.804956	0.000000	0.000000	0.000000	0.000000	0.000000	1
7.578168	15.642117	0.000000	-0.000525	0.009754	0.000000	0.009768	0.179536	0.000000	0.000000	0.000000	0.000000	0.000000	1
10.687160	15.642117	0.000000	-0.000503	0.007334	0.000000	0.007351	-0.854759	0.000000	0.000000	0.000000	0.000000	0.000000	1
13.796152	15.642117	0.000000	0.000036	0.006405	0.000000	0.006405	0.093933	0.000000	0.000000	0.000000	0.000000	0.000000	1
16.905145	15.642117	0.000000	0.003376	0.005621	0.000000	0.006557	0.044071	0.000000	0.000000	0.000000	0.000000	0.000000	1
20.014137	15.642117	0.000000	-0.003018	0.006556	0.000000	0.007218	-0.229862	0.000000	0.000000	0.000000	0.000000	0.000000	1
23.123129	15.642117	0.000000	0.000580	0.007428	0.000000	0.007451	0.417845	0.000000	0.000000	0.000000	0.000000	0.000000	1
26.232121	15.642117	0.000000	0.003450	0.009991	0.000000	0.010570	0.837348	0.000000	0.000000	0.000000	0.000000	0.000000	1
29.341113	15.642117	0.000000	0.001839	0.010434	0.000000	0.010595	-2.746522	0.000000	0.000000	0.000000	0.000000	0.000000	1
32.450105	15.642117	0.000000	0.026401	-0.025469	0.000000	0.036684	3.336063	0.000000	0.000000	0.000000	0.000000	0.000000	1
35.559097	15.642117	0.000000	-0.017702	-0.011009	0.000000	0.020846	12.945615	0.000000	0.000000	0.000000	0.000000	0.000000	1
38.668089	15.642117	0.000000	-0.024733	0.004990	0.000000	0.025231	8.990282	0.000000	0.000000	0.000000	0.000000	0.000000	1
41.777081	15.642117	0.000000	-0.005988	0.006207	0.000000	0.008625	2.932442	0.000000	0.000000	0.000000	0.000000	0.000000	1
44.886073	15.642117	0.000000	-0.008791	-0.005098	0.000000	0.010162	4.430376	0.000000	0.000000	0.000000	0.000000	0.000000	1
47.995066	15.642117	0.000000	-0.010654	-0.007338	0.000000	0.012936	18.921145	0.000000	0.000000	0.000000	0.000000	0.000000	1
51.104058	15.642117	0.000000	-0.098273	0.070391	0.000000	0.120882	73.059506	0.000000	0.000000	0.000000	0.000000	0.000000	2
54.213050	15.642117	0.000000	-0.138926	0.399427	0.000000	0.422898	96.864771	0.000000	0.000000	0.000000	0.000000	0.000000	2
57.322042	15.642117	0.000000	-0.288674	0.684173	0.000000	0.742581	49.352752	0.000000	0.000000	0.000000	0.000000	0.000000	2
60.431034	15.642117	0.000000	-0.464860	0.606828	0.000000	0.764418	4.515555	0.000000	0.000000	0.000000	0.000000	0.000000	1
63.540026	15.642117	0.000000	-0.586659	0.581644	0.000000	0.826123	-54.420049	0.000000	0.000000	0.000000	0.000000	0.000000	1
66.649018	15.642117	0.000000	-0.237915	0.342028	0.000000	0.416637	-80.115941	0.000000	0.000000	0.000000	0.000000	0.000000	1
69.758010	15.642117	0.000000	-0.186106	0.320140	0.000000	0.370304	-48.279175	0.000000	0.000000	0.000000	0.000000	0.000000	1
72.867002	15.642117	0.000000	-0.127278	0.206348	0.000000	0.242444	-40.868109	0.000000	0.000000	0.000000	0.000000	0.000000	2
75.975994	15.642117	0.000000	-0.018643	0.064982	0.000000	0.067603	-24.707179	0.000000	0.000000	0.000000	0.000000	0.000000	2
79.084987	15.642117	0.000000	0.008732	0.047156	0.000000	0.047957	3.107589	0.000000	0.000000	0.000000	0.000000	0.000000	1
82.193979	15.642117	0.000000	-0.028534	0.054840	0.000000	0.061819	4.773997	0.000000	0.000000	0.000000	0.000000	0.000000	1
85.302971	15.642117	0.000000	0.037833	0.060352	0.000000	0.071230	3.478739	0.000000	0.000000	0.000000	0.000000	0.000000	2
88.411963	15.642117	0.000000	0.017474	0.061218	0.000000	0.063663	0.757494	0.000000	0.000000	0.000000	0.000000	0.000000	1
91.520955	15.642117	0.000000	0.002843	0.045324	0.000000	0.045413	-6.216933	0.000000	0.000000	0.000000	0.000000	0.000000	1
94.629947	15.642117	0.000000	-0.006601	0.020750	0.000000	0.021774	-4.437726	0.000000	0.000000	0.000000	0.000000	0.000000	1
97.738939	15.642117	0.000000	0.016888	0.039287	0.000000	0.042762	2.075721	0.000000	0.000000	0.000000	0.000000	0.000000	1
100.847931	15.642117	0.000000	0.017835	0.056492	0.000000	0.059241	3.495149	0.000000	0.000000	0.000000	0.000000	0.000000	2
103.956923	15.642117	0.000000	0.009123	0.047475	0.000000	0.048343	1.304384	0.000000	0.000000	0.000000	0.000000	0.000000	2
107.065915	15.642117	0.000000	-0.000525	0.026227	0.000000	0.026233	-1.564866	0.000000	0.000000	0.000000	0.000000	0.000000	1
110.174908	15.642117	0.000000	-0.004715	0.014601	0.000000	0.015343	-0.332874	0.000000	0.000000	0.000000	0.000000	0.000000	1
113.283900	15.642117	0.000000	-0.002372	0.022021	0.000000	0.022148	-1.914098	0.000000	0.000000	0.000000	0.000000	0.000000	1
116.392892	15.642117	0.000000	-0.004998	0.010248	0.000000	0.011402	-1.814341	0.000000	0.000000	0.000000	0.000000	0.000000	1
119.501884	15.642117	0.000000	-0.013489	0.014314	0.000000	0.019668	2.945448	0.000000	0.000000	0.000000	0.000000	0.000000	1