TITLE = "PIV Result  1435 "
VARIABLES = "X (mm)""Y (mm)""Z (mm)""U (m/s)""V (m/s)""W (m/s)""Speed (m/s)""Vorticity""U-std""V-std""W-std""Speed-std""Vorticity-std""Flag"
ZONE T="ZONE 1435 "
I= 51 , J= 16 , K= 1 , F=POINT
DT=(DOUBLE DOUBLE DOUBLE DOUBLE DOUBLE DOUBLE DOUBLE DOUBLE DOUBLE DOUBLE DOUBLE DOUBLE DOUBLE DOUBLE)
4.469176	3.206148	0.000000	0.001479	0.003880	0.000000	0.004152	2.313319	0.000000	0.000000	0.000000	0.000000	0.000000	1
7.578168	3.206148	0.000000	-0.002479	0.014131	0.000000	0.014347	1.077353	0.000000	0.000000	0.000000	0.000000	0.000000	1
10.687160	3.206148	0.000000	-0.002491	0.014223	0.000000	0.014439	-1.685371	0.000000	0.000000	0.000000	0.000000	0.000000	1
13.796152	3.206148	0.000000	-0.001113	0.003334	0.000000	0.003515	-2.187891	0.000000	0.000000	0.000000	0.000000	0.000000	1
16.905145	3.206148	0.000000	-0.000365	0.004228	0.000000	0.004244	-0.712821	0.000000	0.000000	0.000000	0.000000	0.000000	1
20.014137	3.206148	0.000000	-0.003884	0.006544	0.000000	0.007610	-0.309272	0.000000	0.000000	0.000000	0.000000	0.000000	1
23.123129	3.206148	0.000000	0.000299	0.008810	0.000000	0.008815	-0.047338	0.000000	0.000000	0.000000	0.000000	0.000000	1
26.232121	3.206148	0.000000	0.000297	0.009128	0.000000	0.009133	0.216360	0.000000	0.000000	0.000000	0.000000	0.000000	1
29.341113	3.206148	0.000000	0.000074	0.013361	0.000000	0.013361	1.628286	0.000000	0.000000	0.000000	0.000000	0.000000	1
32.450105	3.206148	0.000000	0.009811	0.011555	0.000000	0.015158	0.623794	0.000000	0.000000	0.000000	0.000000	0.000000	2
35.559097	3.206148	0.000000	-0.003455	0.000317	0.000000	0.003470	-2.046809	0.000000	0.000000	0.000000	0.000000	0.000000	1
38.668089	3.206148	0.000000	-0.006880	0.000367	0.000000	0.006890	-2.470490	0.000000	0.000000	0.000000	0.000000	0.000000	1
41.777081	3.206148	0.000000	-0.006299	0.000339	0.000000	0.006308	-3.745399	0.000000	0.000000	0.000000	0.000000	0.000000	1
44.886073	3.206148	0.000000	-0.002149	0.000016	0.000000	0.002149	-4.369660	0.000000	0.000000	0.000000	0.000000	0.000000	1
47.995066	3.206148	0.000000	0.000076	-0.000471	0.000000	0.000477	-2.292997	0.000000	0.000000	0.000000	0.000000	0.000000	1
51.104058	3.206148	0.000000	0.000399	-0.000953	0.000000	0.001033	1.636865	0.000000	0.000000	0.000000	0.000000	0.000000	1
54.213050	3.206148	0.000000	-0.000840	0.002579	0.000000	0.002712	1.904409	0.000000	0.000000	0.000000	0.000000	0.000000	1
57.322042	3.206148	0.000000	-0.003770	0.003752	0.000000	0.005319	-1.560302	0.000000	0.000000	0.000000	0.000000	0.000000	1
60.431034	3.206148	0.000000	-0.000848	0.000472	0.000000	0.000971	-1.359035	0.000000	0.000000	0.000000	0.000000	0.000000	1
63.540026	3.206148	0.000000	0.003147	-0.000124	0.000000	0.003149	-0.861691	0.000000	0.000000	0.000000	0.000000	0.000000	1
66.649018	3.206148	0.000000	0.003945	-0.000108	0.000000	0.003946	0.762853	0.000000	0.000000	0.000000	0.000000	0.000000	1
69.758010	3.206148	0.000000	0.000706	0.001621	0.000000	0.001768	44.944007	0.000000	0.000000	0.000000	0.000000	0.000000	1
72.867002	3.206148	0.000000	-0.332004	0.284646	0.000000	0.437321	148.114481	0.000000	0.000000	0.000000	0.000000	0.000000	1
75.975994	3.206148	0.000000	-0.923052	1.194028	0.000000	1.509214	17.287050	0.000000	0.000000	0.000000	0.000000	0.000000	1
79.084987	3.206148	0.000000	-0.892597	1.157697	0.000000	1.461846	-279.982360	0.000000	0.000000	0.000000	0.000000	0.000000	1
82.193979	3.206148	0.000000	-0.066884	0.214394	0.000000	0.224585	-223.234876	0.000000	0.000000	0.000000	0.000000	0.000000	2
85.302971	3.206148	0.000000	0.003370	0.069695	0.000000	0.069777	-49.218460	0.000000	0.000000	0.000000	0.000000	0.000000	2
88.411963	3.206148	0.000000	0.023491	-0.021555	0.000000	0.031881	-29.671658	0.000000	0.000000	0.000000	0.000000	0.000000	1
91.520955	3.206148	0.000000	0.034793	-0.061654	0.000000	0.070794	-20.725360	0.000000	0.000000	0.000000	0.000000	0.000000	1
94.629947	3.206148	0.000000	-0.033788	-0.102951	0.000000	0.108354	-14.282313	0.000000	0.000000	0.000000	0.000000	0.000000	1
97.738939	3.206148	0.000000	-0.009014	-0.107481	0.000000	0.107858	3.068552	0.000000	0.000000	0.000000	0.000000	0.000000	2
100.847931	3.206148	0.000000	-0.005062	-0.054099	0.000000	0.054335	14.750675	0.000000	0.000000	0.000000	0.000000	0.000000	2
103.956923	3.206148	0.000000	-0.011630	0.000853	0.000000	0.011661	8.767852	0.000000	0.000000	0.000000	0.000000	0.000000	1
107.065915	3.206148	0.000000	-0.006641	-0.000555	0.000000	0.006664	3.139922	0.000000	0.000000	0.000000	0.000000	0.000000	1
110.174908	3.206148	0.000000	-0.002426	-0.000177	0.000000	0.002433	2.643242	0.000000	0.000000	0.000000	0.000000	0.000000	1
113.283900	3.206148	0.000000	-0.003279	0.001861	0.000000	0.003771	3.051704	0.000000	0.000000	0.000000	0.000000	0.000000	1
116.392892	3.206148	0.000000	-0.003480	0.001152	0.000000	0.003665	3.829002	0.000000	0.000000	0.000000	0.000000	0.000000	1
119.501884	3.206148	0.000000	-0.006207	0.000109	0.000000	0.006208	5.197581	0.000000	0.000000	0.000000	0.000000	0.000000	1
122.610876	3.206148	0.000000	-0.004377	0.000194	0.000000	0.004381	5.007371	0.000000	0.000000	0.000000	0.000000	0.000000	1
125.719868	3.206148	0.000000	-0.000032	0.000203	0.000000	0.000206	4.037896	0.000000	0.000000	0.000000	0.000000	0.000000	1
128.828860	3.206148	0.000000	-0.001321	0.000461	0.000000	0.001399	2.277863	0.000000	0.000000	0.000000	0.000000	0.000000	1
131.937852	3.206148	0.000000	-0.001236	0.001057	0.000000	0.001626	1.738998	0.000000	0.000000	0.000000	0.000000	0.000000	1
135.046844	3.206148	0.000000	-0.002174	0.008519	0.000000	0.008792	1.998216	0.000000	0.000000	0.000000	0.000000	0.000000	1
138.155836	3.206148	0.000000	-0.006301	0.006673	0.000000	0.009178	0.742777	0.000000	0.000000	0.000000	0.000000	0.000000	1
141.264829	3.206148	0.000000	-0.005960	0.006307	0.000000	0.008678	-0.127551	0.000000	0.000000	0.000000	0.000000	0.000000	1
144.373821	3.206148	0.000000	-0.007951	0.006134	0.000000	0.010043	-0.296951	0.000000	0.000000	0.000000	0.000000	0.000000	1
147.482813	3.206148	0.000000	-0.005826	0.009036	0.000000	0.010751	0.083737	0.000000	0.000000	0.000000	0.000000	0.000000	1
150.591805	3.206148	0.000000	-0.005810	0.009412	0.000000	0.011061	0.070264	0.000000	0.000000	0.000000	0.000000	0.000000	1
153.700797	3.206148	0.000000	-0.006476	0.006692	0.000000	0.009312	-0.103253	0.000000	0.000000	0.000000	0.000000	0.000000	1
156.809789	3.206148	0.000000	-0.006237	0.005150	0.000000	0.008088	-0.301407	0.000000	0.000000	0.000000	0.000000	0.000000	1
159.918781	3.206148	0.000000	-0.006700	0.004651	0.000000	0.008156	-0.454074	0.000000	0.000000	0.000000	0.000000	0.000000	1
4.469176	6.315140	0.000000	0.000665	0.003034	0.000000	0.003106	1.427717	0.000000	0.000000	0.000000	0.000000	0.000000	1
7.578168	6.315140	0.000000	-0.001459	0.007372	0.000000	0.007515	0.892745	0.000000	0.000000	0.000000	0.000000	0.000000	1
10.687160	6.315140	0.000000	0.001912	0.011717	0.000000	0.011872	-0.477364	0.000000	0.000000	0.000000	0.000000	0.000000	1
13.796152	6.315140	0.000000	0.002818	0.010966	0.000000	0.011323	-1.487132	0.000000	0.000000	0.000000	0.000000	0.000000	1
16.905145	6.315140	0.000000	-0.000480	0.006653	0.000000	0.006670	-1.249743	0.000000	0.000000	0.000000	0.000000	0.000000	1
20.014137	6.315140	0.000000	0.002073	0.008550	0.000000	0.008797	-0.853610	0.000000	0.000000	0.000000	0.000000	0.000000	1
23.123129	6.315140	0.000000	0.001858	0.011582	0.000000	0.011730	-0.278736	0.000000	0.000000	0.000000	0.000000	0.000000	1
26.232121	6.315140	0.000000	0.000207	0.014361	0.000000	0.014363	0.171328	0.000000	0.000000	0.000000	0.000000	0.000000	1
29.341113	6.315140	0.000000	-0.001277	0.009749	0.000000	0.009832	0.794378	0.000000	0.000000	0.000000	0.000000	0.000000	1
32.450105	6.315140	0.000000	-0.002852	0.016727	0.000000	0.016968	-1.892674	0.000000	0.000000	0.000000	0.000000	0.000000	1
35.559097	6.315140	0.000000	-0.001639	0.005689	0.000000	0.005920	-4.096965	0.000000	0.000000	0.000000	0.000000	0.000000	1
38.668089	6.315140	0.000000	0.000001	0.000312	0.000000	0.000312	-1.765534	0.000000	0.000000	0.000000	0.000000	0.000000	1
41.777081	6.315140	0.000000	0.010492	0.007315	0.000000	0.012790	-1.738876	0.000000	0.000000	0.000000	0.000000	0.000000	1
44.886073	6.315140	0.000000	0.010815	0.007514	0.000000	0.013169	-3.248592	0.000000	0.000000	0.000000	0.000000	0.000000	1
47.995066	6.315140	0.000000	0.001765	-0.001808	0.000000	0.002527	-2.093750	0.000000	0.000000	0.000000	0.000000	0.000000	1
51.104058	6.315140	0.000000	0.001873	-0.002218	0.000000	0.002903	0.189251	0.000000	0.000000	0.000000	0.000000	0.000000	1
54.213050	6.315140	0.000000	-0.015240	0.005734	0.000000	0.016283	-1.286067	0.000000	0.000000	0.000000	0.000000	0.000000	1
57.322042	6.315140	0.000000	0.002959	-0.003837	0.000000	0.004845	-2.479260	0.000000	0.000000	0.000000	0.000000	0.000000	1
60.431034	6.315140	0.000000	0.006325	-0.005333	0.000000	0.008273	0.207363	0.000000	0.000000	0.000000	0.000000	0.000000	1
63.540026	6.315140	0.000000	0.003985	0.005051	0.000000	0.006433	0.092120	0.000000	0.000000	0.000000	0.000000	0.000000	1
66.649018	6.315140	0.000000	0.009173	-0.001392	0.000000	0.009278	2.385704	0.000000	0.000000	0.000000	0.000000	0.000000	1
69.758010	6.315140	0.000000	-0.004477	0.018904	0.000000	0.019427	46.767397	0.000000	0.000000	0.000000	0.000000	0.000000	1
72.867002	6.315140	0.000000	-0.284801	0.314843	0.000000	0.424545	142.488935	0.000000	0.000000	0.000000	0.000000	0.000000	1
75.975994	6.315140	0.000000	-0.473134	1.207588	0.000000	1.296968	40.742503	0.000000	0.000000	0.000000	0.000000	0.000000	2
79.084987	6.315140	0.000000	-0.330956	1.165452	0.000000	1.211532	-213.726092	0.000000	0.000000	0.000000	0.000000	0.000000	2
82.193979	6.315140	0.000000	-0.041799	0.303647	0.000000	0.306511	-190.964572	0.000000	0.000000	0.000000	0.000000	0.000000	1
85.302971	6.315140	0.000000	0.039393	0.125141	0.000000	0.131195	-50.815771	0.000000	0.000000	0.000000	0.000000	0.000000	1
88.411963	6.315140	0.000000	0.045955	0.047112	0.000000	0.065813	-25.687572	0.000000	0.000000	0.000000	0.000000	0.000000	2
91.520955	6.315140	0.000000	0.034746	-0.031601	0.000000	0.046967	-19.491246	0.000000	0.000000	0.000000	0.000000	0.000000	2
94.629947	6.315140	0.000000	0.007671	-0.065402	0.000000	0.065850	-13.817743	0.000000	0.000000	0.000000	0.000000	0.000000	2
97.738939	6.315140	0.000000	-0.002648	-0.074151	0.000000	0.074198	-0.451835	0.000000	0.000000	0.000000	0.000000	0.000000	2
100.847931	6.315140	0.000000	-0.000164	-0.017004	0.000000	0.017005	5.130542	0.000000	0.000000	0.000000	0.000000	0.000000	2
103.956923	6.315140	0.000000	-0.026513	0.002234	0.000000	0.026607	1.378243	0.000000	0.000000	0.000000	0.000000	0.000000	1
107.065915	6.315140	0.000000	-0.013284	0.006978	0.000000	0.015006	0.682593	0.000000	0.000000	0.000000	0.000000	0.000000	1
110.174908	6.315140	0.000000	-0.009746	0.006822	0.000000	0.011897	0.193316	0.000000	0.000000	0.000000	0.000000	0.000000	1
113.283900	6.315140	0.000000	-0.017601	0.001826	0.000000	0.017696	0.235107	0.000000	0.000000	0.000000	0.000000	0.000000	1
116.392892	6.315140	0.000000	-0.011526	-0.000567	0.000000	0.011540	0.103986	0.000000	0.000000	0.000000	0.000000	0.000000	1
119.501884	6.315140	0.000000	-0.027368	-0.000378	0.000000	0.027370	-0.156278	0.000000	0.000000	0.000000	0.000000	0.000000	1
122.610876	6.315140	0.000000	-0.023322	-0.004283	0.000000	0.023712	0.402879	0.000000	0.000000	0.000000	0.000000	0.000000	1
125.719868	6.315140	0.000000	-0.008938	-0.006158	0.000000	0.010854	1.805787	0.000000	0.000000	0.000000	0.000000	0.000000	1
128.828860	6.315140	0.000000	-0.004336	0.005892	0.000000	0.007315	1.894969	0.000000	0.000000	0.000000	0.000000	0.000000	1
131.937852	6.315140	0.000000	-0.002226	0.005389	0.000000	0.005831	1.636618	0.000000	0.000000	0.000000	0.000000	0.000000	1
135.046844	6.315140	0.000000	-0.008006	0.008632	0.000000	0.011773	1.461480	0.000000	0.000000	0.000000	0.000000	0.000000	1
138.155836	6.315140	0.000000	-0.008826	0.009442	0.000000	0.012925	0.030447	0.000000	0.000000	0.000000	0.000000	0.000000	1
141.264829	6.315140	0.000000	-0.006820	0.008338	0.000000	0.010772	-0.852260	0.000000	0.000000	0.000000	0.000000	0.000000	1
144.373821	6.315140	0.000000	-0.005469	0.006632	0.000000	0.008596	-0.539434	0.000000	0.000000	0.000000	0.000000	0.000000	1
147.482813	6.315140	0.000000	-0.005459	0.006388	0.000000	0.008403	-0.196813	0.000000	0.000000	0.000000	0.000000	0.000000	1
150.591805	6.315140	0.000000	-0.006200	0.007222	0.000000	0.009518	-0.228412	0.000000	0.000000	0.000000	0.000000	0.000000	1
153.700797	6.315140	0.000000	-0.007471	0.008199	0.000000	0.011093	0.347553	0.000000	0.000000	0.000000	0.000000	0.000000	1
156.809789	6.315140	0.000000	-0.007197	0.006861	0.000000	0.009944	0.693396	0.000000	0.000000	0.000000	0.000000	0.000000	1
159.918781	6.315140	0.000000	-0.005965	0.004312	0.000000	0.007360	0.663746	0.000000	0.000000	0.000000	0.000000	0.000000	1
4.469176	9.424132	0.000000	0.001922	0.006344	0.000000	0.006629	0.088753	0.000000	0.000000	0.000000	0.000000	0.000000	1
7.578168	9.424132	0.000000	0.000490	0.008585	0.000000	0.008599	0.474424	0.000000	0.000000	0.000000	0.000000	0.000000	1
10.687160	9.424132	0.000000	0.001724	0.011437	0.000000	0.011566	1.119677	0.000000	0.000000	0.000000	0.000000	0.000000	1
13.796152	9.424132	0.000000	0.002234	0.015067	0.000000	0.015231	-0.108661	0.000000	0.000000	0.000000	0.000000	0.000000	1
16.905145	9.424132	0.000000	0.003919	0.009766	0.000000	0.010523	-1.925753	0.000000	0.000000	0.000000	0.000000	0.000000	1
20.014137	9.424132	0.000000	0.007412	0.008819	0.000000	0.011520	-1.444148	0.000000	0.000000	0.000000	0.000000	0.000000	1
23.123129	9.424132	0.000000	0.007369	0.008040	0.000000	0.010906	-0.104672	0.000000	0.000000	0.000000	0.000000	0.000000	1
26.232121	9.424132	0.000000	-0.002568	0.010250	0.000000	0.010566	0.053851	0.000000	0.000000	0.000000	0.000000	0.000000	1
29.341113	9.424132	0.000000	-0.002240	0.010444	0.000000	0.010681	1.231072	0.000000	0.000000	0.000000	0.000000	0.000000	1
32.450105	9.424132	0.000000	0.023379	0.028924	0.000000	0.037191	-1.632884	0.000000	0.000000	0.000000	0.000000	0.000000	1
35.559097	9.424132	0.000000	0.010797	0.023607	0.000000	0.025959	-4.706846	0.000000	0.000000	0.000000	0.000000	0.000000	1
38.668089	9.424132	0.000000	-0.005748	0.014247	0.000000	0.015362	-1.234713	0.000000	0.000000	0.000000	0.000000	0.000000	1
41.777081	9.424132	0.000000	0.011060	0.010297	0.000000	0.015111	3.396295	0.000000	0.000000	0.000000	0.000000	0.000000	1
44.886073	9.424132	0.000000	0.012579	0.007525	0.000000	0.014658	3.203281	0.000000	0.000000	0.000000	0.000000	0.000000	1
47.995066	9.424132	0.000000	0.004298	-0.000408	0.000000	0.004317	-0.180218	0.000000	0.000000	0.000000	0.000000	0.000000	1
51.104058	9.424132	0.000000	0.003104	0.001757	0.000000	0.003567	-0.664379	0.000000	0.000000	0.000000	0.000000	0.000000	1
54.213050	9.424132	0.000000	0.005831	0.002466	0.000000	0.006331	-1.607212	0.000000	0.000000	0.000000	0.000000	0.000000	1
57.322042	9.424132	0.000000	0.005320	-0.006560	0.000000	0.008446	-1.050015	0.000000	0.000000	0.000000	0.000000	0.000000	1
60.431034	9.424132	0.000000	0.004348	-0.004911	0.000000	0.006559	1.575846	0.000000	0.000000	0.000000	0.000000	0.000000	1
63.540026	9.424132	0.000000	0.002412	0.003445	0.000000	0.004205	1.200181	0.000000	0.000000	0.000000	0.000000	0.000000	1
66.649018	9.424132	0.000000	0.007096	-0.003045	0.000000	0.007722	8.116206	0.000000	0.000000	0.000000	0.000000	0.000000	1
69.758010	9.424132	0.000000	-0.006680	0.031511	0.000000	0.032211	53.236570	0.000000	0.000000	0.000000	0.000000	0.000000	1
72.867002	9.424132	0.000000	-0.183420	0.379892	0.000000	0.421854	128.755643	0.000000	0.000000	0.000000	0.000000	0.000000	1
75.975994	9.424132	0.000000	-0.305304	0.913249	0.000000	0.962930	51.726546	0.000000	0.000000	0.000000	0.000000	0.000000	1
79.084987	9.424132	0.000000	-0.214429	0.881217	0.000000	0.906931	-122.095266	0.000000	0.000000	0.000000	0.000000	0.000000	1
82.193979	9.424132	0.000000	-0.012592	0.413346	0.000000	0.413538	-137.452600	0.000000	0.000000	0.000000	0.000000	0.000000	2
85.302971	9.424132	0.000000	0.041302	0.124856	0.000000	0.131510	-56.025987	0.000000	0.000000	0.000000	0.000000	0.000000	1
88.411963	9.424132	0.000000	0.060107	0.065248	0.000000	0.088714	-14.224437	0.000000	0.000000	0.000000	0.000000	0.000000	1
91.520955	9.424132	0.000000	0.038526	0.045685	0.000000	0.059761	-13.771562	0.000000	0.000000	0.000000	0.000000	0.000000	2
94.629947	9.424132	0.000000	0.033481	-0.001762	0.000000	0.033528	-8.280351	0.000000	0.000000	0.000000	0.000000	0.000000	2
97.738939	9.424132	0.000000	0.042388	0.022611	0.000000	0.048042	2.627628	0.000000	0.000000	0.000000	0.000000	0.000000	2
100.847931	9.424132	0.000000	0.033800	0.050288	0.000000	0.060592	-5.277627	0.000000	0.000000	0.000000	0.000000	0.000000	1
103.956923	9.424132	0.000000	-0.015975	0.013895	0.000000	0.021173	-16.400555	0.000000	0.000000	0.000000	0.000000	0.000000	1
107.065915	9.424132	0.000000	-0.009717	0.010156	0.000000	0.014055	-16.392915	0.000000	0.000000	0.000000	0.000000	0.000000	1
110.174908	9.424132	0.000000	-0.007987	0.006669	0.000000	0.010405	-9.750624	0.000000	0.000000	0.000000	0.000000	0.000000	1
113.283900	9.424132	0.000000	-0.012202	-0.000271	0.000000	0.012205	-2.954538	0.000000	0.000000	0.000000	0.000000	0.000000	1
116.392892	9.424132	0.000000	-0.008077	-0.002038	0.000000	0.008330	-2.664623	0.000000	0.000000	0.000000	0.000000	0.000000	1
119.501884	9.424132	0.000000	-0.000342	-0.003774	0.000000	0.003790	-2.467431	0.000000	0.000000	0.000000	0.000000	0.000000	1
122.610876	9.424132	0.000000	-0.009447	0.004530	0.000000	0.010477	-1.573159	0.000000	0.000000	0.000000	0.000000	0.000000	1
125.719868	9.424132	0.000000	-0.006806	0.006664	0.000000	0.009525	-0.400591	0.000000	0.000000	0.000000	0.000000	0.000000	1
128.828860	9.424132	0.000000	-0.004775	0.006755	0.000000	0.008272	0.141501	0.000000	0.000000	0.000000	0.000000	0.000000	1
131.937852	9.424132	0.000000	-0.008759	0.008642	0.000000	0.012305	-0.332981	0.000000	0.000000	0.000000	0.000000	0.000000	1
135.046844	9.424132	0.000000	-0.008650	0.008946	0.000000	0.012444	-0.539399	0.000000	0.000000	0.000000	0.000000	0.000000	1
138.155836	9.424132	0.000000	-0.008372	0.008723	0.000000	0.012090	-0.830751	0.000000	0.000000	0.000000	0.000000	0.000000	1
141.264829	9.424132	0.000000	-0.001460	0.006384	0.000000	0.006548	-0.879383	0.000000	0.000000	0.000000	0.000000	0.000000	1
144.373821	9.424132	0.000000	-0.001693	0.006871	0.000000	0.007076	-0.122534	0.000000	0.000000	0.000000	0.000000	0.000000	1
147.482813	9.424132	0.000000	-0.007894	0.009085	0.000000	0.012036	-0.294475	0.000000	0.000000	0.000000	0.000000	0.000000	1
150.591805	9.424132	0.000000	-0.001451	0.003998	0.000000	0.004253	-0.102343	0.000000	0.000000	0.000000	0.000000	0.000000	1
153.700797	9.424132	0.000000	-0.007403	0.007850	0.000000	0.010790	1.320800	0.000000	0.000000	0.000000	0.000000	0.000000	1
156.809789	9.424132	0.000000	-0.013034	0.013336	0.000000	0.018648	1.367207	0.000000	0.000000	0.000000	0.000000	0.000000	1
159.918781	9.424132	0.000000	-0.013371	0.013720	0.000000	0.019158	0.957702	0.000000	0.000000	0.000000	0.000000	0.000000	1
4.469176	12.533124	0.000000	0.004356	0.008034	0.000000	0.009139	0.780921	0.000000	0.000000	0.000000	0.000000	0.000000	1
7.578168	12.533124	0.000000	0.004659	0.010130	0.000000	0.011150	1.136503	0.000000	0.000000	0.000000	0.000000	0.000000	1
10.687160	12.533124	0.000000	-0.003167	0.011816	0.000000	0.012233	1.389983	0.000000	0.000000	0.000000	0.000000	0.000000	1
13.796152	12.533124	0.000000	-0.001162	0.013400	0.000000	0.013451	1.055838	0.000000	0.000000	0.000000	0.000000	0.000000	1
16.905145	12.533124	0.000000	0.012805	0.017766	0.000000	0.021899	-1.103283	0.000000	0.000000	0.000000	0.000000	0.000000	1
20.014137	12.533124	0.000000	0.008858	0.009792	0.000000	0.013204	-1.499390	0.000000	0.000000	0.000000	0.000000	0.000000	1
23.123129	12.533124	0.000000	0.004643	0.010010	0.000000	0.011035	0.037811	0.000000	0.000000	0.000000	0.000000	0.000000	1
26.232121	12.533124	0.000000	-0.001283	0.009381	0.000000	0.009469	-0.452014	0.000000	0.000000	0.000000	0.000000	0.000000	1
29.341113	12.533124	0.000000	-0.001246	0.008213	0.000000	0.008307	2.076708	0.000000	0.000000	0.000000	0.000000	0.000000	1
32.450105	12.533124	0.000000	0.026303	0.028014	0.000000	0.038427	2.471543	0.000000	0.000000	0.000000	0.000000	0.000000	1
35.559097	12.533124	0.000000	0.014501	0.019814	0.000000	0.024554	-1.344109	0.000000	0.000000	0.000000	0.000000	0.000000	1
38.668089	12.533124	0.000000	-0.009065	0.009083	0.000000	0.012832	-1.730369	0.000000	0.000000	0.000000	0.000000	0.000000	1
41.777081	12.533124	0.000000	-0.010074	-0.008460	0.000000	0.013155	6.190487	0.000000	0.000000	0.000000	0.000000	0.000000	2
44.886073	12.533124	0.000000	-0.015410	0.023375	0.000000	0.027997	8.634494	0.000000	0.000000	0.000000	0.000000	0.000000	1
47.995066	12.533124	0.000000	-0.003225	0.023739	0.000000	0.023957	0.999554	0.000000	0.000000	0.000000	0.000000	0.000000	1
51.104058	12.533124	0.000000	0.002415	0.004497	0.000000	0.005104	0.903856	0.000000	0.000000	0.000000	0.000000	0.000000	1
54.213050	12.533124	0.000000	0.001497	0.006756	0.000000	0.006919	2.801540	0.000000	0.000000	0.000000	0.000000	0.000000	1
57.322042	12.533124	0.000000	0.000719	0.014551	0.000000	0.014569	1.935282	0.000000	0.000000	0.000000	0.000000	0.000000	1
60.431034	12.533124	0.000000	-0.003110	0.009283	0.000000	0.009790	0.828244	0.000000	0.000000	0.000000	0.000000	0.000000	1
63.540026	12.533124	0.000000	-0.005809	-0.006055	0.000000	0.008391	-0.114905	0.000000	0.000000	0.000000	0.000000	0.000000	2
66.649018	12.533124	0.000000	-0.003474	-0.010209	0.000000	0.010784	18.967026	0.000000	0.000000	0.000000	0.000000	0.000000	1
69.758010	12.533124	0.000000	-0.012531	0.082682	0.000000	0.083627	85.360493	0.000000	0.000000	0.000000	0.000000	0.000000	2
72.867002	12.533124	0.000000	-0.122388	0.365439	0.000000	0.385389	130.906750	0.000000	0.000000	0.000000	0.000000	0.000000	2
75.975994	12.533124	0.000000	-0.184718	0.938121	0.000000	0.956133	30.872443	0.000000	0.000000	0.000000	0.000000	0.000000	2
79.084987	12.533124	0.000000	-0.110010	0.758914	0.000000	0.766846	-91.951049	0.000000	0.000000	0.000000	0.000000	0.000000	1
82.193979	12.533124	0.000000	-0.003656	0.573566	0.000000	0.573578	-105.315021	0.000000	0.000000	0.000000	0.000000	0.000000	1
85.302971	12.533124	0.000000	0.007679	0.158745	0.000000	0.158930	-57.566295	0.000000	0.000000	0.000000	0.000000	0.000000	2
88.411963	12.533124	0.000000	0.025817	0.087394	0.000000	0.091127	-13.208556	0.000000	0.000000	0.000000	0.000000	0.000000	1
91.520955	12.533124	0.000000	0.047859	0.061159	0.000000	0.077659	-8.352752	0.000000	0.000000	0.000000	0.000000	0.000000	2
94.629947	12.533124	0.000000	0.034877	0.024695	0.000000	0.042734	-0.347261	0.000000	0.000000	0.000000	0.000000	0.000000	1
97.738939	12.533124	0.000000	0.030821	0.044901	0.000000	0.054461	10.927735	0.000000	0.000000	0.000000	0.000000	0.000000	1
100.847931	12.533124	0.000000	0.038335	0.070193	0.000000	0.079979	0.257281	0.000000	0.000000	0.000000	0.000000	0.000000	1
103.956923	12.533124	0.000000	0.086028	0.077688	0.000000	0.115914	-16.843283	0.000000	0.000000	0.000000	0.000000	0.000000	2
107.065915	12.533124	0.000000	0.089181	0.084605	0.000000	0.122928	-31.194423	0.000000	0.000000	0.000000	0.000000	0.000000	2
110.174908	12.533124	0.000000	-0.001898	0.005148	0.000000	0.005486	-26.955698	0.000000	0.000000	0.000000	0.000000	0.000000	1
113.283900	12.533124	0.000000	-0.005947	-0.002092	0.000000	0.006304	-9.807010	0.000000	0.000000	0.000000	0.000000	0.000000	1
116.392892	12.533124	0.000000	-0.002205	-0.003056	0.000000	0.003768	-2.527392	0.000000	0.000000	0.000000	0.000000	0.000000	1
119.501884	12.533124	0.000000	-0.000687	-0.002177	0.000000	0.002283	0.704985	0.000000	0.000000	0.000000	0.000000	0.000000	1
122.610876	12.533124	0.000000	-0.005991	0.006168	0.000000	0.008599	0.694251	0.000000	0.000000	0.000000	0.000000	0.000000	1
125.719868	12.533124	0.000000	-0.005657	0.008223	0.000000	0.009981	-0.147990	0.000000	0.000000	0.000000	0.000000	0.000000	1
128.828860	12.533124	0.000000	-0.001271	0.008538	0.000000	0.008632	-0.519926	0.000000	0.000000	0.000000	0.000000	0.000000	1
131.937852	12.533124	0.000000	0.000466	0.008343	0.000000	0.008356	-1.104265	0.000000	0.000000	0.000000	0.000000	0.000000	1
135.046844	12.533124	0.000000	-0.005119	0.004472	0.000000	0.006797	-0.920507	0.000000	0.000000	0.000000	0.000000	0.000000	1
138.155836	12.533124	0.000000	-0.004366	0.003639	0.000000	0.005684	-0.079554	0.000000	0.000000	0.000000	0.000000	0.000000	1
141.264829	12.533124	0.000000	-0.001609	0.006245	0.000000	0.006449	0.783945	0.000000	0.000000	0.000000	0.000000	0.000000	1
144.373821	12.533124	0.000000	-0.001873	0.006759	0.000000	0.007014	1.423223	0.000000	0.000000	0.000000	0.000000	0.000000	1
147.482813	12.533124	0.000000	-0.008436	0.009171	0.000000	0.012461	0.486424	0.000000	0.000000	0.000000	0.000000	0.000000	1
150.591805	12.533124	0.000000	-0.004065	0.004368	0.000000	0.005967	0.234281	0.000000	0.000000	0.000000	0.000000	0.000000	1
153.700797	12.533124	0.000000	-0.008187	0.007863	0.000000	0.011351	1.158931	0.000000	0.000000	0.000000	0.000000	0.000000	1
156.809789	12.533124	0.000000	-0.013271	0.013535	0.000000	0.018956	-0.016634	0.000000	0.000000	0.000000	0.000000	0.000000	1
159.918781	12.533124	0.000000	-0.013441	0.013676	0.000000	0.019175	-1.165449	0.000000	0.000000	0.000000	0.000000	0.000000	1
4.469176	15.642117	0.000000	0.001183	0.001687	0.000000	0.002060	0.937781	0.000000	0.000000	0.000000	0.000000	0.000000	1
7.578168	15.642117	0.000000	0.000313	0.004050	0.000000	0.004062	0.968556	0.000000	0.000000	0.000000	0.000000	0.000000	1
10.687160	15.642117	0.000000	-0.002677	0.011802	0.000000	0.012101	0.277628	0.000000	0.000000	0.000000	0.000000	0.000000	1
13.796152	15.642117	0.000000	-0.000584	0.013800	0.000000	0.013812	1.157905	0.000000	0.000000	0.000000	0.000000	0.000000	1
16.905145	15.642117	0.000000	0.010817	0.024694	0.000000	0.026959	1.195750	0.000000	0.000000	0.000000	0.000000	0.000000	1
20.014137	15.642117	0.000000	0.008130	0.011520	0.000000	0.014100	0.853766	0.000000	0.000000	0.000000	0.000000	0.000000	1
23.123129	15.642117	0.000000	0.004429	0.010032	0.000000	0.010966	1.256852	0.000000	0.000000	0.000000	0.000000	0.000000	1
26.232121	15.642117	0.000000	0.000248	0.009505	0.000000	0.009508	-0.030020	0.000000	0.000000	0.000000	0.000000	0.000000	1
29.341113	15.642117	0.000000	0.007138	0.012050	0.000000	0.014006	0.364862	0.000000	0.000000	0.000000	0.000000	0.000000	1
32.450105	15.642117	0.000000	0.007401	0.010811	0.000000	0.013101	1.735838	0.000000	0.000000	0.000000	0.000000	0.000000	1
35.559097	15.642117	0.000000	0.008421	0.012202	0.000000	0.014826	1.396123	0.000000	0.000000	0.000000	0.000000	0.000000	1
38.668089	15.642117	0.000000	0.005257	0.020193	0.000000	0.020866	-1.991105	0.000000	0.000000	0.000000	0.000000	0.000000	1
41.777081	15.642117	0.000000	-0.041392	0.006205	0.000000	0.041854	1.345969	0.000000	0.000000	0.000000	0.000000	0.000000	1
44.886073	15.642117	0.000000	-0.023223	0.022601	0.000000	0.032405	4.503086	0.000000	0.000000	0.000000	0.000000	0.000000	1
47.995066	15.642117	0.000000	-0.008729	0.030186	0.000000	0.031423	1.814183	0.000000	0.000000	0.000000	0.000000	0.000000	1
51.104058	15.642117	0.000000	-0.010852	0.015174	0.000000	0.018656	5.632673	0.000000	0.000000	0.000000	0.000000	0.000000	1
54.213050	15.642117	0.000000	-0.015031	0.021959	0.000000	0.026611	6.535782	0.000000	0.000000	0.000000	0.000000	0.000000	1
57.322042	15.642117	0.000000	-0.009105	0.002958	0.000000	0.009573	2.256212	0.000000	0.000000	0.000000	0.000000	0.000000	1
60.431034	15.642117	0.000000	-0.014052	0.004305	0.000000	0.014697	-1.447521	0.000000	0.000000	0.000000	0.000000	0.000000	1
63.540026	15.642117	0.000000	-0.006184	-0.005056	0.000000	0.007988	1.792495	0.000000	0.000000	0.000000	0.000000	0.000000	2
66.649018	15.642117	0.000000	-0.015637	-0.019759	0.000000	0.025198	37.468279	0.000000	0.000000	0.000000	0.000000	0.000000	2
69.758010	15.642117	0.000000	-0.076574	0.137197	0.000000	0.157119	133.592679	0.000000	0.000000	0.000000	0.000000	0.000000	2
72.867002	15.642117	0.000000	-0.187188	0.802806	0.000000	0.824341	137.269259	0.000000	0.000000	0.000000	0.000000	0.000000	2
75.975994	15.642117	0.000000	-0.156304	0.872065	0.000000	0.885962	20.271396	0.000000	0.000000	0.000000	0.000000	0.000000	1
79.084987	15.642117	0.000000	-0.065418	0.725633	0.000000	0.728576	-72.040985	0.000000	0.000000	0.000000	0.000000	0.000000	1
82.193979	15.642117	0.000000	0.011419	0.285106	0.000000	0.285334	-82.489421	0.000000	0.000000	0.000000	0.000000	0.000000	2
85.302971	15.642117	0.000000	0.019147	0.237818	0.000000	0.238588	-45.251112	0.000000	0.000000	0.000000	0.000000	0.000000	2
88.411963	15.642117	0.000000	0.020206	0.113560	0.000000	0.115343	-22.344251	0.000000	0.000000	0.000000	0.000000	0.000000	1
91.520955	15.642117	0.000000	0.029390	0.072545	0.000000	0.078272	-8.960542	0.000000	0.000000	0.000000	0.000000	0.000000	1
94.629947	15.642117	0.000000	0.017435	0.024000	0.000000	0.029665	0.803017	0.000000	0.000000	0.000000	0.000000	0.000000	1
97.738939	15.642117	0.000000	0.011902	0.047784	0.000000	0.049244	7.911720	0.000000	0.000000	0.000000	0.000000	0.000000	1
100.847931	15.642117	0.000000	0.036336	0.078265	0.000000	0.086288	1.341136	0.000000	0.000000	0.000000	0.000000	0.000000	1
103.956923	15.642117	0.000000	0.135450	0.123334	0.000000	0.183188	-10.522827	0.000000	0.000000	0.000000	0.000000	0.000000	2
107.065915	15.642117	0.000000	0.151058	0.136807	0.000000	0.203801	-29.210968	0.000000	0.000000	0.000000	0.000000	0.000000	2
110.174908	15.642117	0.000000	0.070461	0.051197	0.000000	0.087097	-31.934044	0.000000	0.000000	0.000000	0.000000	0.000000	2
113.283900	15.642117	0.000000	0.020151	0.000210	0.000000	0.020152	-15.412363	0.000000	0.000000	0.000000	0.000000	0.000000	1
116.392892	15.642117	0.000000	0.007953	-0.008425	0.000000	0.011586	-2.665145	0.000000	0.000000	0.000000	0.000000	0.000000	1
119.501884	15.642117	0.000000	-0.001684	0.004093	0.000000	0.004426	2.113633	0.000000	0.000000	0.000000	0.000000	0.000000	1