TITLE = "PIV Result  1897 "
VARIABLES = "X (mm)""Y (mm)""Z (mm)""U (m/s)""V (m/s)""W (m/s)""Speed (m/s)""Vorticity""U-std""V-std""W-std""Speed-std""Vorticity-std""Flag"
ZONE T="ZONE 1897 "
I= 51 , J= 16 , K= 1 , F=POINT
DT=(DOUBLE DOUBLE DOUBLE DOUBLE DOUBLE DOUBLE DOUBLE DOUBLE DOUBLE DOUBLE DOUBLE DOUBLE DOUBLE DOUBLE)
4.469176	3.206148	0.000000	0.001411	0.002592	0.000000	0.002952	1.058830	0.000000	0.000000	0.000000	0.000000	0.000000	1
7.578168	3.206148	0.000000	-0.001448	0.004411	0.000000	0.004642	0.890648	0.000000	0.000000	0.000000	0.000000	0.000000	1
10.687160	3.206148	0.000000	-0.003353	0.006551	0.000000	0.007359	0.715763	0.000000	0.000000	0.000000	0.000000	0.000000	1
13.796152	3.206148	0.000000	0.001341	0.006300	0.000000	0.006441	0.731736	0.000000	0.000000	0.000000	0.000000	0.000000	1
16.905145	3.206148	0.000000	0.004075	0.007011	0.000000	0.008109	0.945768	0.000000	0.000000	0.000000	0.000000	0.000000	1
20.014137	3.206148	0.000000	0.003957	0.005900	0.000000	0.007104	-0.138193	0.000000	0.000000	0.000000	0.000000	0.000000	1
23.123129	3.206148	0.000000	0.003029	0.003310	0.000000	0.004487	-0.371525	0.000000	0.000000	0.000000	0.000000	0.000000	1
26.232121	3.206148	0.000000	0.007139	0.006146	0.000000	0.009420	0.998070	0.000000	0.000000	0.000000	0.000000	0.000000	1
29.341113	3.206148	0.000000	0.005331	0.004632	0.000000	0.007063	0.048052	0.000000	0.000000	0.000000	0.000000	0.000000	1
32.450105	3.206148	0.000000	0.001225	0.003096	0.000000	0.003330	-2.438836	0.000000	0.000000	0.000000	0.000000	0.000000	1
35.559097	3.206148	0.000000	-0.000781	-0.000225	0.000000	0.000813	-3.871066	0.000000	0.000000	0.000000	0.000000	0.000000	1
38.668089	3.206148	0.000000	-0.001488	0.000222	0.000000	0.001504	-3.170163	0.000000	0.000000	0.000000	0.000000	0.000000	1
41.777081	3.206148	0.000000	0.000649	-0.000218	0.000000	0.000684	-2.741075	0.000000	0.000000	0.000000	0.000000	0.000000	1
44.886073	3.206148	0.000000	-0.000248	-0.000137	0.000000	0.000283	-3.272972	0.000000	0.000000	0.000000	0.000000	0.000000	1
47.995066	3.206148	0.000000	-0.001632	0.000190	0.000000	0.001643	-2.407344	0.000000	0.000000	0.000000	0.000000	0.000000	1
51.104058	3.206148	0.000000	0.002517	0.000162	0.000000	0.002522	5.991962	0.000000	0.000000	0.000000	0.000000	0.000000	1
54.213050	3.206148	0.000000	0.002892	-0.000620	0.000000	0.002957	10.245359	0.000000	0.000000	0.000000	0.000000	0.000000	1
57.322042	3.206148	0.000000	-0.001387	0.001455	0.000000	0.002011	4.474627	0.000000	0.000000	0.000000	0.000000	0.000000	1
60.431034	3.206148	0.000000	-0.003770	0.004082	0.000000	0.005557	2.483181	0.000000	0.000000	0.000000	0.000000	0.000000	1
63.540026	3.206148	0.000000	-0.003482	-0.002610	0.000000	0.004352	0.846334	0.000000	0.000000	0.000000	0.000000	0.000000	1
66.649018	3.206148	0.000000	-0.003936	-0.002223	0.000000	0.004520	1.048363	0.000000	0.000000	0.000000	0.000000	0.000000	1
69.758010	3.206148	0.000000	-0.002578	0.000428	0.000000	0.002613	4.636758	0.000000	0.000000	0.000000	0.000000	0.000000	1
72.867002	3.206148	0.000000	0.000000	-0.000000	0.000000	0.000000	4.484703	0.000000	0.000000	0.000000	0.000000	0.000000	1
75.975994	3.206148	0.000000	0.016549	0.010979	0.000000	0.019859	10.092766	0.000000	0.000000	0.000000	0.000000	0.000000	2
79.084987	3.206148	0.000000	0.032430	0.022860	0.000000	0.039677	82.522682	0.000000	0.000000	0.000000	0.000000	0.000000	2
82.193979	3.206148	0.000000	0.209553	0.355250	0.000000	0.412450	207.904630	0.000000	0.000000	0.000000	0.000000	0.000000	1
85.302971	3.206148	0.000000	0.270354	1.414664	0.000000	1.440266	157.998300	0.000000	0.000000	0.000000	0.000000	0.000000	1
88.411963	3.206148	0.000000	0.232370	1.536903	0.000000	1.554371	-215.371491	0.000000	0.000000	0.000000	0.000000	0.000000	1
91.520955	3.206148	0.000000	0.059886	-0.010278	0.000000	0.060762	-248.663941	0.000000	0.000000	0.000000	0.000000	0.000000	2
94.629947	3.206148	0.000000	-0.002773	0.005473	0.000000	0.006136	-8.629853	0.000000	0.000000	0.000000	0.000000	0.000000	1
97.738939	3.206148	0.000000	0.001808	-0.001139	0.000000	0.002136	3.205375	0.000000	0.000000	0.000000	0.000000	0.000000	1
100.847931	3.206148	0.000000	0.002638	-0.000683	0.000000	0.002725	5.023695	0.000000	0.000000	0.000000	0.000000	0.000000	1
103.956923	3.206148	0.000000	0.000858	-0.000265	0.000000	0.000898	3.922714	0.000000	0.000000	0.000000	0.000000	0.000000	1
107.065915	3.206148	0.000000	-0.000031	-0.000273	0.000000	0.000274	2.744034	0.000000	0.000000	0.000000	0.000000	0.000000	1
110.174908	3.206148	0.000000	-0.000079	0.001078	0.000000	0.001081	2.078774	0.000000	0.000000	0.000000	0.000000	0.000000	1
113.283900	3.206148	0.000000	-0.000109	0.001446	0.000000	0.001450	1.006842	0.000000	0.000000	0.000000	0.000000	0.000000	1
116.392892	3.206148	0.000000	-0.001868	0.000297	0.000000	0.001892	0.788333	0.000000	0.000000	0.000000	0.000000	0.000000	1
119.501884	3.206148	0.000000	-0.002060	0.000272	0.000000	0.002078	1.823008	0.000000	0.000000	0.000000	0.000000	0.000000	1
122.610876	3.206148	0.000000	0.001105	0.000439	0.000000	0.001189	1.631225	0.000000	0.000000	0.000000	0.000000	0.000000	1
125.719868	3.206148	0.000000	0.000701	0.000217	0.000000	0.000734	3.109038	0.000000	0.000000	0.000000	0.000000	0.000000	1
128.828860	3.206148	0.000000	-0.002559	0.000115	0.000000	0.002562	3.616395	0.000000	0.000000	0.000000	0.000000	0.000000	1
131.937852	3.206148	0.000000	-0.002736	0.000386	0.000000	0.002763	0.901143	0.000000	0.000000	0.000000	0.000000	0.000000	1
135.046844	3.206148	0.000000	-0.006167	0.007102	0.000000	0.009406	-0.525143	0.000000	0.000000	0.000000	0.000000	0.000000	1
138.155836	3.206148	0.000000	-0.009227	0.010391	0.000000	0.013896	-1.691880	0.000000	0.000000	0.000000	0.000000	0.000000	1
141.264829	3.206148	0.000000	-0.001692	0.006582	0.000000	0.006796	-1.899917	0.000000	0.000000	0.000000	0.000000	0.000000	1
144.373821	3.206148	0.000000	-0.001345	0.003366	0.000000	0.003625	-0.812604	0.000000	0.000000	0.000000	0.000000	0.000000	1
147.482813	3.206148	0.000000	-0.005760	0.004303	0.000000	0.007190	-0.223583	0.000000	0.000000	0.000000	0.000000	0.000000	1
150.591805	3.206148	0.000000	-0.005433	0.002972	0.000000	0.006193	0.210756	0.000000	0.000000	0.000000	0.000000	0.000000	1
153.700797	3.206148	0.000000	-0.002849	-0.000294	0.000000	0.002864	0.377769	0.000000	0.000000	0.000000	0.000000	0.000000	1
156.809789	3.206148	0.000000	-0.002567	0.002170	0.000000	0.003361	-0.223373	0.000000	0.000000	0.000000	0.000000	0.000000	1
159.918781	3.206148	0.000000	-0.003578	0.003337	0.000000	0.004892	-0.603786	0.000000	0.000000	0.000000	0.000000	0.000000	1
4.469176	6.315140	0.000000	-0.000095	0.005724	0.000000	0.005725	0.167071	0.000000	0.000000	0.000000	0.000000	0.000000	1
7.578168	6.315140	0.000000	-0.003672	0.006759	0.000000	0.007692	-0.182138	0.000000	0.000000	0.000000	0.000000	0.000000	1
10.687160	6.315140	0.000000	-0.003612	0.006628	0.000000	0.007549	-0.149710	0.000000	0.000000	0.000000	0.000000	0.000000	1
13.796152	6.315140	0.000000	-0.001472	0.008216	0.000000	0.008347	0.400075	0.000000	0.000000	0.000000	0.000000	0.000000	1
16.905145	6.315140	0.000000	0.000123	0.005432	0.000000	0.005433	0.808700	0.000000	0.000000	0.000000	0.000000	0.000000	1
20.014137	6.315140	0.000000	0.003266	0.008971	0.000000	0.009547	0.022359	0.000000	0.000000	0.000000	0.000000	0.000000	1
23.123129	6.315140	0.000000	0.004727	0.003778	0.000000	0.006051	-0.382864	0.000000	0.000000	0.000000	0.000000	0.000000	1
26.232121	6.315140	0.000000	0.001893	0.001562	0.000000	0.002454	0.983856	0.000000	0.000000	0.000000	0.000000	0.000000	1
29.341113	6.315140	0.000000	0.006941	0.007682	0.000000	0.010353	0.893787	0.000000	0.000000	0.000000	0.000000	0.000000	1
32.450105	6.315140	0.000000	0.008655	0.010613	0.000000	0.013695	-0.934593	0.000000	0.000000	0.000000	0.000000	0.000000	1
35.559097	6.315140	0.000000	0.009961	0.009422	0.000000	0.013711	-2.764723	0.000000	0.000000	0.000000	0.000000	0.000000	1
38.668089	6.315140	0.000000	0.004005	-0.000247	0.000000	0.004012	-2.544103	0.000000	0.000000	0.000000	0.000000	0.000000	1
41.777081	6.315140	0.000000	0.010871	0.001940	0.000000	0.011043	-2.173973	0.000000	0.000000	0.000000	0.000000	0.000000	1
44.886073	6.315140	0.000000	0.010184	0.002392	0.000000	0.010461	-2.298578	0.000000	0.000000	0.000000	0.000000	0.000000	1
47.995066	6.315140	0.000000	0.009670	0.003217	0.000000	0.010192	1.324135	0.000000	0.000000	0.000000	0.000000	0.000000	2
51.104058	6.315140	0.000000	0.001259	0.003934	0.000000	0.004131	10.244811	0.000000	0.000000	0.000000	0.000000	0.000000	2
54.213050	6.315140	0.000000	-0.027522	0.056916	0.000000	0.063221	10.912800	0.000000	0.000000	0.000000	0.000000	0.000000	2
57.322042	6.315140	0.000000	-0.021256	0.048098	0.000000	0.052586	2.721569	0.000000	0.000000	0.000000	0.000000	0.000000	2
60.431034	6.315140	0.000000	-0.016779	0.024700	0.000000	0.029860	1.014061	0.000000	0.000000	0.000000	0.000000	0.000000	1
63.540026	6.315140	0.000000	-0.012378	0.028263	0.000000	0.030854	1.864808	0.000000	0.000000	0.000000	0.000000	0.000000	1
66.649018	6.315140	0.000000	-0.011428	0.003238	0.000000	0.011878	6.796801	0.000000	0.000000	0.000000	0.000000	0.000000	1
69.758010	6.315140	0.000000	-0.005176	0.011785	0.000000	0.012871	8.796298	0.000000	0.000000	0.000000	0.000000	0.000000	2
72.867002	6.315140	0.000000	-0.014303	0.031688	0.000000	0.034766	3.868248	0.000000	0.000000	0.000000	0.000000	0.000000	1
75.975994	6.315140	0.000000	0.012705	0.021958	0.000000	0.025368	11.332261	0.000000	0.000000	0.000000	0.000000	0.000000	1
79.084987	6.315140	0.000000	0.079212	0.159132	0.000000	0.177757	94.591439	0.000000	0.000000	0.000000	0.000000	0.000000	2
82.193979	6.315140	0.000000	0.205707	0.789812	0.000000	0.816160	193.187030	0.000000	0.000000	0.000000	0.000000	0.000000	1
85.302971	6.315140	0.000000	0.295072	1.416636	0.000000	1.447041	133.871691	0.000000	0.000000	0.000000	0.000000	0.000000	1
88.411963	6.315140	0.000000	0.180091	1.566336	0.000000	1.576655	-187.360777	0.000000	0.000000	0.000000	0.000000	0.000000	2
91.520955	6.315140	0.000000	0.060086	0.083580	0.000000	0.102936	-234.562731	0.000000	0.000000	0.000000	0.000000	0.000000	2
94.629947	6.315140	0.000000	0.017695	-0.026030	0.000000	0.031475	-22.841381	0.000000	0.000000	0.000000	0.000000	0.000000	1
97.738939	6.315140	0.000000	-0.016069	-0.009621	0.000000	0.018729	-0.218988	0.000000	0.000000	0.000000	0.000000	0.000000	1
100.847931	6.315140	0.000000	-0.011605	-0.009539	0.000000	0.015022	1.863435	0.000000	0.000000	0.000000	0.000000	0.000000	1
103.956923	6.315140	0.000000	-0.007225	-0.002464	0.000000	0.007634	2.104733	0.000000	0.000000	0.000000	0.000000	0.000000	1
107.065915	6.315140	0.000000	-0.007392	0.001064	0.000000	0.007468	0.758683	0.000000	0.000000	0.000000	0.000000	0.000000	1
110.174908	6.315140	0.000000	-0.007505	0.000087	0.000000	0.007505	0.212036	0.000000	0.000000	0.000000	0.000000	0.000000	1
113.283900	6.315140	0.000000	-0.003044	0.000050	0.000000	0.003044	-0.065303	0.000000	0.000000	0.000000	0.000000	0.000000	1
116.392892	6.315140	0.000000	-0.005628	-0.003665	0.000000	0.006716	-0.325285	0.000000	0.000000	0.000000	0.000000	0.000000	1
119.501884	6.315140	0.000000	-0.008327	-0.005693	0.000000	0.010088	0.462639	0.000000	0.000000	0.000000	0.000000	0.000000	1
122.610876	6.315140	0.000000	-0.002786	-0.001322	0.000000	0.003084	0.608484	0.000000	0.000000	0.000000	0.000000	0.000000	1
125.719868	6.315140	0.000000	-0.001144	-0.001246	0.000000	0.001692	2.401150	0.000000	0.000000	0.000000	0.000000	0.000000	1
128.828860	6.315140	0.000000	-0.008214	0.024431	0.000000	0.025775	2.436609	0.000000	0.000000	0.000000	0.000000	0.000000	1
131.937852	6.315140	0.000000	-0.011182	0.021959	0.000000	0.024642	-0.621178	0.000000	0.000000	0.000000	0.000000	0.000000	1
135.046844	6.315140	0.000000	-0.003648	0.008625	0.000000	0.009365	-1.156804	0.000000	0.000000	0.000000	0.000000	0.000000	1
138.155836	6.315140	0.000000	-0.001817	0.009426	0.000000	0.009599	-1.265822	0.000000	0.000000	0.000000	0.000000	0.000000	1
141.264829	6.315140	0.000000	-0.000827	0.006307	0.000000	0.006361	-1.249915	0.000000	0.000000	0.000000	0.000000	0.000000	1
144.373821	6.315140	0.000000	0.000971	0.004278	0.000000	0.004387	-0.364847	0.000000	0.000000	0.000000	0.000000	0.000000	1
147.482813	6.315140	0.000000	-0.004599	0.005138	0.000000	0.006895	-0.010056	0.000000	0.000000	0.000000	0.000000	0.000000	1
150.591805	6.315140	0.000000	-0.006631	0.005333	0.000000	0.008509	0.265785	0.000000	0.000000	0.000000	0.000000	0.000000	1
153.700797	6.315140	0.000000	-0.007545	0.006427	0.000000	0.009911	0.514147	0.000000	0.000000	0.000000	0.000000	0.000000	1
156.809789	6.315140	0.000000	-0.000715	0.002095	0.000000	0.002214	0.787382	0.000000	0.000000	0.000000	0.000000	0.000000	1
159.918781	6.315140	0.000000	-0.000659	0.001945	0.000000	0.002054	1.134527	0.000000	0.000000	0.000000	0.000000	0.000000	1
4.469176	9.424132	0.000000	-0.000393	0.002091	0.000000	0.002128	-0.647727	0.000000	0.000000	0.000000	0.000000	0.000000	1
7.578168	9.424132	0.000000	0.002759	0.002683	0.000000	0.003848	-0.558695	0.000000	0.000000	0.000000	0.000000	0.000000	1
10.687160	9.424132	0.000000	0.001186	0.002943	0.000000	0.003173	-0.237945	0.000000	0.000000	0.000000	0.000000	0.000000	1
13.796152	9.424132	0.000000	-0.002406	0.003693	0.000000	0.004408	-0.079321	0.000000	0.000000	0.000000	0.000000	0.000000	1
16.905145	9.424132	0.000000	-0.002771	0.005026	0.000000	0.005739	0.075136	0.000000	0.000000	0.000000	0.000000	0.000000	1
20.014137	9.424132	0.000000	0.002301	0.003605	0.000000	0.004277	0.118636	0.000000	0.000000	0.000000	0.000000	0.000000	1
23.123129	9.424132	0.000000	0.003193	0.002598	0.000000	0.004116	-0.154473	0.000000	0.000000	0.000000	0.000000	0.000000	1
26.232121	9.424132	0.000000	0.001047	0.001234	0.000000	0.001619	0.539650	0.000000	0.000000	0.000000	0.000000	0.000000	1
29.341113	9.424132	0.000000	0.005625	0.006211	0.000000	0.008379	1.502227	0.000000	0.000000	0.000000	0.000000	0.000000	1
32.450105	9.424132	0.000000	0.008007	0.009690	0.000000	0.012570	0.941680	0.000000	0.000000	0.000000	0.000000	0.000000	1
35.559097	9.424132	0.000000	0.012552	0.011533	0.000000	0.017046	-0.840099	0.000000	0.000000	0.000000	0.000000	0.000000	1
38.668089	9.424132	0.000000	0.006748	0.007203	0.000000	0.009870	-0.631611	0.000000	0.000000	0.000000	0.000000	0.000000	1
41.777081	9.424132	0.000000	0.018754	0.011123	0.000000	0.021804	-0.402006	0.000000	0.000000	0.000000	0.000000	0.000000	1
44.886073	9.424132	0.000000	0.016310	0.009216	0.000000	0.018734	1.109882	0.000000	0.000000	0.000000	0.000000	0.000000	1
47.995066	9.424132	0.000000	0.007038	0.010881	0.000000	0.012959	9.943908	0.000000	0.000000	0.000000	0.000000	0.000000	2
51.104058	9.424132	0.000000	-0.028249	0.041898	0.000000	0.050532	17.034098	0.000000	0.000000	0.000000	0.000000	0.000000	1
54.213050	9.424132	0.000000	-0.039693	0.063654	0.000000	0.075016	9.744037	0.000000	0.000000	0.000000	0.000000	0.000000	2
57.322042	9.424132	0.000000	-0.052929	0.056223	0.000000	0.077217	-1.309410	0.000000	0.000000	0.000000	0.000000	0.000000	2
60.431034	9.424132	0.000000	-0.019469	0.029708	0.000000	0.035519	5.933584	0.000000	0.000000	0.000000	0.000000	0.000000	1
63.540026	9.424132	0.000000	0.008320	0.054044	0.000000	0.054681	23.036302	0.000000	0.000000	0.000000	0.000000	0.000000	1
66.649018	9.424132	0.000000	-0.042109	0.095050	0.000000	0.103960	34.579043	0.000000	0.000000	0.000000	0.000000	0.000000	1
69.758010	9.424132	0.000000	-0.057062	0.133984	0.000000	0.145629	26.043125	0.000000	0.000000	0.000000	0.000000	0.000000	2
72.867002	9.424132	0.000000	-0.021656	0.085914	0.000000	0.088601	12.185042	0.000000	0.000000	0.000000	0.000000	0.000000	1
75.975994	9.424132	0.000000	0.080320	0.165273	0.000000	0.183757	24.690494	0.000000	0.000000	0.000000	0.000000	0.000000	1
79.084987	9.424132	0.000000	0.124884	0.288361	0.000000	0.314243	100.533668	0.000000	0.000000	0.000000	0.000000	0.000000	1
82.193979	9.424132	0.000000	0.152383	0.829482	0.000000	0.843363	164.394106	0.000000	0.000000	0.000000	0.000000	0.000000	1
85.302971	9.424132	0.000000	0.194634	1.088890	0.000000	1.106148	83.787600	0.000000	0.000000	0.000000	0.000000	0.000000	1
88.411963	9.424132	0.000000	0.113270	1.096727	0.000000	1.102560	-131.225957	0.000000	0.000000	0.000000	0.000000	0.000000	1
91.520955	9.424132	0.000000	0.109442	0.255545	0.000000	0.277994	-165.637547	0.000000	0.000000	0.000000	0.000000	0.000000	1
94.629947	9.424132	0.000000	0.040858	0.002487	0.000000	0.040934	-35.764238	0.000000	0.000000	0.000000	0.000000	0.000000	2
97.738939	9.424132	0.000000	-0.004739	-0.005033	0.000000	0.006913	-4.514761	0.000000	0.000000	0.000000	0.000000	0.000000	1
100.847931	9.424132	0.000000	-0.001269	-0.003155	0.000000	0.003400	-2.394252	0.000000	0.000000	0.000000	0.000000	0.000000	1
103.956923	9.424132	0.000000	-0.005920	0.004989	0.000000	0.007742	-1.226170	0.000000	0.000000	0.000000	0.000000	0.000000	1
107.065915	9.424132	0.000000	-0.002448	0.007698	0.000000	0.008078	-2.811071	0.000000	0.000000	0.000000	0.000000	0.000000	1
110.174908	9.424132	0.000000	-0.004098	0.001784	0.000000	0.004470	-2.683084	0.000000	0.000000	0.000000	0.000000	0.000000	1
113.283900	9.424132	0.000000	-0.002791	0.000144	0.000000	0.002795	-1.313601	0.000000	0.000000	0.000000	0.000000	0.000000	1
116.392892	9.424132	0.000000	-0.000537	0.000394	0.000000	0.000666	-0.529576	0.000000	0.000000	0.000000	0.000000	0.000000	1
119.501884	9.424132	0.000000	-0.003736	0.003021	0.000000	0.004805	-0.156395	0.000000	0.000000	0.000000	0.000000	0.000000	1
122.610876	9.424132	0.000000	-0.000813	0.003135	0.000000	0.003239	-0.163661	0.000000	0.000000	0.000000	0.000000	0.000000	1
125.719868	9.424132	0.000000	-0.000293	0.002812	0.000000	0.002827	1.530688	0.000000	0.000000	0.000000	0.000000	0.000000	1
128.828860	9.424132	0.000000	-0.003302	0.007027	0.000000	0.007764	1.580045	0.000000	0.000000	0.000000	0.000000	0.000000	1
131.937852	9.424132	0.000000	-0.007296	0.009798	0.000000	0.012216	-0.873726	0.000000	0.000000	0.000000	0.000000	0.000000	1
135.046844	9.424132	0.000000	-0.003813	0.008696	0.000000	0.009495	-1.215447	0.000000	0.000000	0.000000	0.000000	0.000000	1
138.155836	9.424132	0.000000	0.000400	0.005863	0.000000	0.005876	-0.168715	0.000000	0.000000	0.000000	0.000000	0.000000	1
141.264829	9.424132	0.000000	-0.001018	0.004648	0.000000	0.004758	1.041314	0.000000	0.000000	0.000000	0.000000	0.000000	1
144.373821	9.424132	0.000000	0.000124	0.004537	0.000000	0.004539	1.376388	0.000000	0.000000	0.000000	0.000000	0.000000	1
147.482813	9.424132	0.000000	-0.004465	0.005096	0.000000	0.006775	0.237020	0.000000	0.000000	0.000000	0.000000	0.000000	1
150.591805	9.424132	0.000000	-0.006510	0.005553	0.000000	0.008557	-0.596341	0.000000	0.000000	0.000000	0.000000	0.000000	1
153.700797	9.424132	0.000000	-0.007979	0.007738	0.000000	0.011115	-0.337514	0.000000	0.000000	0.000000	0.000000	0.000000	1
156.809789	9.424132	0.000000	-0.009443	0.007407	0.000000	0.012001	0.731693	0.000000	0.000000	0.000000	0.000000	0.000000	1
159.918781	9.424132	0.000000	-0.009750	0.007602	0.000000	0.012363	1.573860	0.000000	0.000000	0.000000	0.000000	0.000000	1
4.469176	12.533124	0.000000	-0.003216	0.014928	0.000000	0.015271	-1.967628	0.000000	0.000000	0.000000	0.000000	0.000000	1
7.578168	12.533124	0.000000	0.000048	0.005254	0.000000	0.005254	-0.739452	0.000000	0.000000	0.000000	0.000000	0.000000	1
10.687160	12.533124	0.000000	-0.000594	0.005763	0.000000	0.005793	0.373051	0.000000	0.000000	0.000000	0.000000	0.000000	1
13.796152	12.533124	0.000000	-0.002379	0.004707	0.000000	0.005274	-0.159680	0.000000	0.000000	0.000000	0.000000	0.000000	1
16.905145	12.533124	0.000000	-0.000934	0.000968	0.000000	0.001345	-0.960711	0.000000	0.000000	0.000000	0.000000	0.000000	1
20.014137	12.533124	0.000000	0.000758	0.000470	0.000000	0.000892	-0.810632	0.000000	0.000000	0.000000	0.000000	0.000000	1
23.123129	12.533124	0.000000	0.001767	0.001398	0.000000	0.002253	-0.142717	0.000000	0.000000	0.000000	0.000000	0.000000	1
26.232121	12.533124	0.000000	0.003801	0.002261	0.000000	0.004423	0.070507	0.000000	0.000000	0.000000	0.000000	0.000000	1
29.341113	12.533124	0.000000	0.002818	0.000423	0.000000	0.002849	0.296296	0.000000	0.000000	0.000000	0.000000	0.000000	1
32.450105	12.533124	0.000000	0.006068	0.004736	0.000000	0.007697	1.873236	0.000000	0.000000	0.000000	0.000000	0.000000	1
35.559097	12.533124	0.000000	0.012755	0.004956	0.000000	0.013684	2.543993	0.000000	0.000000	0.000000	0.000000	0.000000	1
38.668089	12.533124	0.000000	0.006730	0.005400	0.000000	0.008629	3.010551	0.000000	0.000000	0.000000	0.000000	0.000000	1
41.777081	12.533124	0.000000	0.015478	0.010400	0.000000	0.018648	5.969048	0.000000	0.000000	0.000000	0.000000	0.000000	1
44.886073	12.533124	0.000000	0.020434	0.010926	0.000000	0.023171	8.291310	0.000000	0.000000	0.000000	0.000000	0.000000	1
47.995066	12.533124	0.000000	-0.051863	0.000785	0.000000	0.051869	15.418175	0.000000	0.000000	0.000000	0.000000	0.000000	2
51.104058	12.533124	0.000000	-0.056274	0.020995	0.000000	0.060063	19.565003	0.000000	0.000000	0.000000	0.000000	0.000000	2
54.213050	12.533124	0.000000	-0.052943	0.063192	0.000000	0.082439	9.259127	0.000000	0.000000	0.000000	0.000000	0.000000	2
57.322042	12.533124	0.000000	-0.037902	0.065515	0.000000	0.075688	0.211872	0.000000	0.000000	0.000000	0.000000	0.000000	2
60.431034	12.533124	0.000000	-0.044846	0.043953	0.000000	0.062794	27.445133	0.000000	0.000000	0.000000	0.000000	0.000000	1
63.540026	12.533124	0.000000	-0.046328	0.130557	0.000000	0.138533	54.696269	0.000000	0.000000	0.000000	0.000000	0.000000	2
66.649018	12.533124	0.000000	-0.195636	0.227513	0.000000	0.300059	51.889047	0.000000	0.000000	0.000000	0.000000	0.000000	1
69.758010	12.533124	0.000000	-0.124978	0.325038	0.000000	0.348237	38.993131	0.000000	0.000000	0.000000	0.000000	0.000000	2
72.867002	12.533124	0.000000	-0.050198	0.405375	0.000000	0.408471	33.223502	0.000000	0.000000	0.000000	0.000000	0.000000	2
75.975994	12.533124	0.000000	0.033539	0.384594	0.000000	0.386053	43.927351	0.000000	0.000000	0.000000	0.000000	0.000000	2
79.084987	12.533124	0.000000	0.065268	0.478965	0.000000	0.483392	66.872755	0.000000	0.000000	0.000000	0.000000	0.000000	1
82.193979	12.533124	0.000000	-0.016067	0.559967	0.000000	0.560197	108.646984	0.000000	0.000000	0.000000	0.000000	0.000000	1
85.302971	12.533124	0.000000	0.002320	0.958970	0.000000	0.958973	26.150027	0.000000	0.000000	0.000000	0.000000	0.000000	2
88.411963	12.533124	0.000000	0.084577	0.430127	0.000000	0.438364	-94.836958	0.000000	0.000000	0.000000	0.000000	0.000000	1
91.520955	12.533124	0.000000	0.054804	0.205804	0.000000	0.212976	-78.319833	0.000000	0.000000	0.000000	0.000000	0.000000	2
94.629947	12.533124	0.000000	0.038977	0.006441	0.000000	0.039506	-25.701962	0.000000	0.000000	0.000000	0.000000	0.000000	1
97.738939	12.533124	0.000000	0.022069	0.006052	0.000000	0.022883	-3.692024	0.000000	0.000000	0.000000	0.000000	0.000000	1
100.847931	12.533124	0.000000	0.007132	0.005236	0.000000	0.008848	-1.384650	0.000000	0.000000	0.000000	0.000000	0.000000	1
103.956923	12.533124	0.000000	0.009635	0.011773	0.000000	0.015212	-0.605995	0.000000	0.000000	0.000000	0.000000	0.000000	1
107.065915	12.533124	0.000000	0.010750	0.013029	0.000000	0.016891	-2.422035	0.000000	0.000000	0.000000	0.000000	0.000000	1
110.174908	12.533124	0.000000	0.003725	0.010090	0.000000	0.010756	-2.418564	0.000000	0.000000	0.000000	0.000000	0.000000	1
113.283900	12.533124	0.000000	-0.000772	0.005290	0.000000	0.005346	-1.182684	0.000000	0.000000	0.000000	0.000000	0.000000	1
116.392892	12.533124	0.000000	-0.001732	0.003619	0.000000	0.004012	-0.653840	0.000000	0.000000	0.000000	0.000000	0.000000	1
119.501884	12.533124	0.000000	-0.005496	0.005004	0.000000	0.007433	-0.811243	0.000000	0.000000	0.000000	0.000000	0.000000	1
122.610876	12.533124	0.000000	-0.001546	0.002704	0.000000	0.003115	0.289398	0.000000	0.000000	0.000000	0.000000	0.000000	1
125.719868	12.533124	0.000000	-0.000858	0.002503	0.000000	0.002646	1.925672	0.000000	0.000000	0.000000	0.000000	0.000000	1
128.828860	12.533124	0.000000	-0.006265	0.010998	0.000000	0.012658	1.371996	0.000000	0.000000	0.000000	0.000000	0.000000	1
131.937852	12.533124	0.000000	-0.008676	0.011313	0.000000	0.014257	-0.183149	0.000000	0.000000	0.000000	0.000000	0.000000	1
135.046844	12.533124	0.000000	-0.004370	0.007974	0.000000	0.009093	-0.735999	0.000000	0.000000	0.000000	0.000000	0.000000	1
138.155836	12.533124	0.000000	0.000003	0.004369	0.000000	0.004369	0.021772	0.000000	0.000000	0.000000	0.000000	0.000000	1
141.264829	12.533124	0.000000	-0.010112	0.007825	0.000000	0.012786	1.297103	0.000000	0.000000	0.000000	0.000000	0.000000	1
144.373821	12.533124	0.000000	-0.010771	0.009575	0.000000	0.014412	1.277735	0.000000	0.000000	0.000000	0.000000	0.000000	1
147.482813	12.533124	0.000000	-0.007085	0.007075	0.000000	0.010012	-0.300003	0.000000	0.000000	0.000000	0.000000	0.000000	1
150.591805	12.533124	0.000000	-0.000809	0.001488	0.000000	0.001694	-1.071690	0.000000	0.000000	0.000000	0.000000	0.000000	1
153.700797	12.533124	0.000000	-0.000914	0.001457	0.000000	0.001720	-0.501467	0.000000	0.000000	0.000000	0.000000	0.000000	1
156.809789	12.533124	0.000000	-0.007348	0.005076	0.000000	0.008931	-0.182538	0.000000	0.000000	0.000000	0.000000	0.000000	1
159.918781	12.533124	0.000000	-0.011119	0.007315	0.000000	0.013309	-0.117931	0.000000	0.000000	0.000000	0.000000	0.000000	1
4.469176	15.642117	0.000000	-0.002988	0.016029	0.000000	0.016305	-3.411504	0.000000	0.000000	0.000000	0.000000	0.000000	1
7.578168	15.642117	0.000000	-0.001045	0.003919	0.000000	0.004056	-1.996567	0.000000	0.000000	0.000000	0.000000	0.000000	1
10.687160	15.642117	0.000000	-0.002239	0.001491	0.000000	0.002690	-0.153732	0.000000	0.000000	0.000000	0.000000	0.000000	1
13.796152	15.642117	0.000000	-0.002980	0.002054	0.000000	0.003619	0.344711	0.000000	0.000000	0.000000	0.000000	0.000000	1
16.905145	15.642117	0.000000	0.005563	0.008787	0.000000	0.010400	-0.728568	0.000000	0.000000	0.000000	0.000000	0.000000	1
20.014137	15.642117	0.000000	0.004472	0.004986	0.000000	0.006697	-1.481419	0.000000	0.000000	0.000000	0.000000	0.000000	1
23.123129	15.642117	0.000000	0.000331	0.000006	0.000000	0.000331	-0.475223	0.000000	0.000000	0.000000	0.000000	0.000000	1
26.232121	15.642117	0.000000	0.002798	-0.001580	0.000000	0.003213	0.790614	0.000000	0.000000	0.000000	0.000000	0.000000	1
29.341113	15.642117	0.000000	0.002585	-0.002306	0.000000	0.003464	0.916606	0.000000	0.000000	0.000000	0.000000	0.000000	1
32.450105	15.642117	0.000000	-0.010823	-0.030774	0.000000	0.032622	5.257506	0.000000	0.000000	0.000000	0.000000	0.000000	1
35.559097	15.642117	0.000000	0.005529	-0.017824	0.000000	0.018662	13.833142	0.000000	0.000000	0.000000	0.000000	0.000000	1
38.668089	15.642117	0.000000	0.027369	0.021403	0.000000	0.034744	14.459147	0.000000	0.000000	0.000000	0.000000	0.000000	1
41.777081	15.642117	0.000000	-0.006602	0.055437	0.000000	0.055829	14.699289	0.000000	0.000000	0.000000	0.000000	0.000000	1
44.886073	15.642117	0.000000	-0.037910	0.072488	0.000000	0.081803	15.388627	0.000000	0.000000	0.000000	0.000000	0.000000	1
47.995066	15.642117	0.000000	-0.104484	0.035812	0.000000	0.110450	25.546437	0.000000	0.000000	0.000000	0.000000	0.000000	2
51.104058	15.642117	0.000000	-0.097902	0.056234	0.000000	0.112903	41.679682	0.000000	0.000000	0.000000	0.000000	0.000000	2
54.213050	15.642117	0.000000	-0.064015	0.069699	0.000000	0.094635	46.150071	0.000000	0.000000	0.000000	0.000000	0.000000	1
57.322042	15.642117	0.000000	-0.029023	0.088773	0.000000	0.093396	42.675455	0.000000	0.000000	0.000000	0.000000	0.000000	1
60.431034	15.642117	0.000000	-0.099074	0.091277	0.000000	0.134711	53.009536	0.000000	0.000000	0.000000	0.000000	0.000000	2
63.540026	15.642117	0.000000	-0.209552	0.290306	0.000000	0.358036	51.481803	0.000000	0.000000	0.000000	0.000000	0.000000	1
66.649018	15.642117	0.000000	-0.240546	0.305435	0.000000	0.388784	28.622084	0.000000	0.000000	0.000000	0.000000	0.000000	1
69.758010	15.642117	0.000000	-0.225836	0.328470	0.000000	0.398616	29.641802	0.000000	0.000000	0.000000	0.000000	0.000000	1
72.867002	15.642117	0.000000	-0.071877	0.342479	0.000000	0.349940	66.601753	0.000000	0.000000	0.000000	0.000000	0.000000	1
75.975994	15.642117	0.000000	-0.035402	0.619466	0.000000	0.620477	75.749304	0.000000	0.000000	0.000000	0.000000	0.000000	2
79.084987	15.642117	0.000000	-0.016564	0.662299	0.000000	0.662506	35.260458	0.000000	0.000000	0.000000	0.000000	0.000000	1
82.193979	15.642117	0.000000	-0.117926	0.598843	0.000000	0.610343	32.175647	0.000000	0.000000	0.000000	0.000000	0.000000	1
85.302971	15.642117	0.000000	-0.065181	0.662147	0.000000	0.665348	-26.502591	0.000000	0.000000	0.000000	0.000000	0.000000	2
88.411963	15.642117	0.000000	0.004060	0.342531	0.000000	0.342555	-79.460232	0.000000	0.000000	0.000000	0.000000	0.000000	2
91.520955	15.642117	0.000000	0.006416	0.061778	0.000000	0.062111	-37.520920	0.000000	0.000000	0.000000	0.000000	0.000000	1
94.629947	15.642117	0.000000	0.036651	0.016704	0.000000	0.040278	-9.450879	0.000000	0.000000	0.000000	0.000000	0.000000	1
97.738939	15.642117	0.000000	0.031183	0.007083	0.000000	0.031977	1.311397	0.000000	0.000000	0.000000	0.000000	0.000000	1
100.847931	15.642117	0.000000	0.006829	0.008662	0.000000	0.011030	5.015043	0.000000	0.000000	0.000000	0.000000	0.000000	1
103.956923	15.642117	0.000000	0.008797	0.018016	0.000000	0.020049	3.919520	0.000000	0.000000	0.000000	0.000000	0.000000	1
107.065915	15.642117	0.000000	0.009538	0.016669	0.000000	0.019205	0.264322	0.000000	0.000000	0.000000	0.000000	0.000000	1
110.174908	15.642117	0.000000	0.002105	0.009237	0.000000	0.009473	-0.605561	0.000000	0.000000	0.000000	0.000000	0.000000	1
113.283900	15.642117	0.000000	-0.000892	0.005836	0.000000	0.005904	-0.243721	0.000000	0.000000	0.000000	0.000000	0.000000	1
116.392892	15.642117	0.000000	0.005546	0.010235	0.000000	0.011641	-0.405022	0.000000	0.000000	0.000000	0.000000	0.000000	1
119.501884	15.642117	0.000000	0.007152	0.012219	0.000000	0.014158	-0.876591	0.000000	0.000000	0.000000	0.000000	0.000000	1
122.610876	15.642117	0.000000	-0.008497	0.009320	0.000000	0.012612	0.483958	0.000000	0.000000	0.000000	0.000000	0.000000	1