TITLE = "PIV Result  1845 "
VARIABLES = "X (mm)""Y (mm)""Z (mm)""U (m/s)""V (m/s)""W (m/s)""Speed (m/s)""Vorticity""U-std""V-std""W-std""Speed-std""Vorticity-std""Flag"
ZONE T="ZONE 1845 "
I= 51 , J= 16 , K= 1 , F=POINT
DT=(DOUBLE DOUBLE DOUBLE DOUBLE DOUBLE DOUBLE DOUBLE DOUBLE DOUBLE DOUBLE DOUBLE DOUBLE DOUBLE DOUBLE)
4.469176	3.206148	0.000000	0.004589	0.006084	0.000000	0.007621	-2.139403	0.000000	0.000000	0.000000	0.000000	0.000000	1
7.578168	3.206148	0.000000	0.003039	0.004540	0.000000	0.005463	-0.305435	0.000000	0.000000	0.000000	0.000000	0.000000	1
10.687160	3.206148	0.000000	0.004565	0.007969	0.000000	0.009184	1.389346	0.000000	0.000000	0.000000	0.000000	0.000000	1
13.796152	3.206148	0.000000	0.003538	0.008250	0.000000	0.008976	1.395540	0.000000	0.000000	0.000000	0.000000	0.000000	1
16.905145	3.206148	0.000000	0.003042	0.005568	0.000000	0.006344	1.417352	0.000000	0.000000	0.000000	0.000000	0.000000	1
20.014137	3.206148	0.000000	0.002216	0.003943	0.000000	0.004523	2.198819	0.000000	0.000000	0.000000	0.000000	0.000000	1
23.123129	3.206148	0.000000	0.004555	0.009177	0.000000	0.010246	1.961913	0.000000	0.000000	0.000000	0.000000	0.000000	1
26.232121	3.206148	0.000000	0.003940	0.011435	0.000000	0.012094	1.455149	0.000000	0.000000	0.000000	0.000000	0.000000	1
29.341113	3.206148	0.000000	0.003185	0.010446	0.000000	0.010921	1.381713	0.000000	0.000000	0.000000	0.000000	0.000000	1
32.450105	3.206148	0.000000	0.004341	0.005893	0.000000	0.007319	0.276304	0.000000	0.000000	0.000000	0.000000	0.000000	1
35.559097	3.206148	0.000000	0.005047	0.000010	0.000000	0.005048	-2.271871	0.000000	0.000000	0.000000	0.000000	0.000000	1
38.668089	3.206148	0.000000	0.003351	-0.000477	0.000000	0.003385	-2.071564	0.000000	0.000000	0.000000	0.000000	0.000000	1
41.777081	3.206148	0.000000	-0.000209	-0.000426	0.000000	0.000474	0.251570	0.000000	0.000000	0.000000	0.000000	0.000000	1
44.886073	3.206148	0.000000	-0.000381	-0.001546	0.000000	0.001593	-0.019832	0.000000	0.000000	0.000000	0.000000	0.000000	1
47.995066	3.206148	0.000000	-0.001112	-0.002278	0.000000	0.002535	-0.384751	0.000000	0.000000	0.000000	0.000000	0.000000	1
51.104058	3.206148	0.000000	0.000714	0.000787	0.000000	0.001062	-2.793246	0.000000	0.000000	0.000000	0.000000	0.000000	1
54.213050	3.206148	0.000000	0.005108	0.001449	0.000000	0.005309	2.602408	0.000000	0.000000	0.000000	0.000000	0.000000	1
57.322042	3.206148	0.000000	0.003053	-0.001894	0.000000	0.003593	9.802462	0.000000	0.000000	0.000000	0.000000	0.000000	1
60.431034	3.206148	0.000000	-0.027430	0.002081	0.000000	0.027508	90.186949	0.000000	0.000000	0.000000	0.000000	0.000000	2
63.540026	3.206148	0.000000	-0.030182	0.016403	0.000000	0.034351	175.313319	0.000000	0.000000	0.000000	0.000000	0.000000	1
66.649018	3.206148	0.000000	-0.258057	0.302338	0.000000	0.397494	108.938352	0.000000	0.000000	0.000000	0.000000	0.000000	2
69.758010	3.206148	0.000000	-0.438287	0.471215	0.000000	0.643537	-19.344030	0.000000	0.000000	0.000000	0.000000	0.000000	2
72.867002	3.206148	0.000000	-0.475785	0.331473	0.000000	0.579867	-69.507396	0.000000	0.000000	0.000000	0.000000	0.000000	2
75.975994	3.206148	0.000000	-0.263943	0.168496	0.000000	0.313140	-52.894088	0.000000	0.000000	0.000000	0.000000	0.000000	2
79.084987	3.206148	0.000000	-0.082617	0.059316	0.000000	0.101705	-26.798232	0.000000	0.000000	0.000000	0.000000	0.000000	1
82.193979	3.206148	0.000000	-0.025571	0.031063	0.000000	0.040234	-7.305555	0.000000	0.000000	0.000000	0.000000	0.000000	1
85.302971	3.206148	0.000000	0.012496	0.010293	0.000000	0.016189	-4.248339	0.000000	0.000000	0.000000	0.000000	0.000000	1
88.411963	3.206148	0.000000	-0.009377	0.011638	0.000000	0.014945	-1.123605	0.000000	0.000000	0.000000	0.000000	0.000000	2
91.520955	3.206148	0.000000	-0.005433	0.005550	0.000000	0.007767	-2.003761	0.000000	0.000000	0.000000	0.000000	0.000000	2
94.629947	3.206148	0.000000	-0.001489	-0.016993	0.000000	0.017058	-4.161917	0.000000	0.000000	0.000000	0.000000	0.000000	1
97.738939	3.206148	0.000000	0.006469	-0.006886	0.000000	0.009448	-1.278625	0.000000	0.000000	0.000000	0.000000	0.000000	1
100.847931	3.206148	0.000000	-0.012988	-0.002425	0.000000	0.013213	3.012884	0.000000	0.000000	0.000000	0.000000	0.000000	1
103.956923	3.206148	0.000000	-0.009299	0.000590	0.000000	0.009318	3.979409	0.000000	0.000000	0.000000	0.000000	0.000000	1
107.065915	3.206148	0.000000	0.002237	0.002223	0.000000	0.003154	-0.799080	0.000000	0.000000	0.000000	0.000000	0.000000	1
110.174908	3.206148	0.000000	-0.000069	-0.000302	0.000000	0.000309	-3.162018	0.000000	0.000000	0.000000	0.000000	0.000000	1
113.283900	3.206148	0.000000	-0.001180	-0.000364	0.000000	0.001235	-0.318738	0.000000	0.000000	0.000000	0.000000	0.000000	1
116.392892	3.206148	0.000000	-0.001025	0.000811	0.000000	0.001308	1.346784	0.000000	0.000000	0.000000	0.000000	0.000000	1
119.501884	3.206148	0.000000	-0.001401	0.000813	0.000000	0.001620	0.916640	0.000000	0.000000	0.000000	0.000000	0.000000	1
122.610876	3.206148	0.000000	-0.000555	-0.000067	0.000000	0.000559	1.138021	0.000000	0.000000	0.000000	0.000000	0.000000	1
125.719868	3.206148	0.000000	0.000272	-0.000707	0.000000	0.000757	1.724303	0.000000	0.000000	0.000000	0.000000	0.000000	1
128.828860	3.206148	0.000000	-0.000970	-0.000276	0.000000	0.001009	2.125345	0.000000	0.000000	0.000000	0.000000	0.000000	1
131.937852	3.206148	0.000000	-0.000625	0.000015	0.000000	0.000625	1.637036	0.000000	0.000000	0.000000	0.000000	0.000000	1
135.046844	3.206148	0.000000	-0.000735	0.000928	0.000000	0.001184	1.764521	0.000000	0.000000	0.000000	0.000000	0.000000	1
138.155836	3.206148	0.000000	-0.001882	0.002378	0.000000	0.003033	2.556252	0.000000	0.000000	0.000000	0.000000	0.000000	1
141.264829	3.206148	0.000000	-0.001447	0.005605	0.000000	0.005789	2.961940	0.000000	0.000000	0.000000	0.000000	0.000000	1
144.373821	3.206148	0.000000	-0.001445	0.014005	0.000000	0.014079	0.801316	0.000000	0.000000	0.000000	0.000000	0.000000	1
147.482813	3.206148	0.000000	-0.005666	0.004211	0.000000	0.007059	-1.096576	0.000000	0.000000	0.000000	0.000000	0.000000	1
150.591805	3.206148	0.000000	-0.009363	0.007480	0.000000	0.011984	-0.245374	0.000000	0.000000	0.000000	0.000000	0.000000	1
153.700797	3.206148	0.000000	-0.007966	0.006679	0.000000	0.010395	0.443262	0.000000	0.000000	0.000000	0.000000	0.000000	1
156.809789	3.206148	0.000000	-0.003156	0.004344	0.000000	0.005370	0.991113	0.000000	0.000000	0.000000	0.000000	0.000000	1
159.918781	3.206148	0.000000	-0.004889	0.010503	0.000000	0.011585	1.262112	0.000000	0.000000	0.000000	0.000000	0.000000	1
4.469176	6.315140	0.000000	0.007297	0.010608	0.000000	0.012875	-2.462394	0.000000	0.000000	0.000000	0.000000	0.000000	1
7.578168	6.315140	0.000000	0.002268	0.000787	0.000000	0.002401	-0.890930	0.000000	0.000000	0.000000	0.000000	0.000000	1
10.687160	6.315140	0.000000	0.001054	0.002581	0.000000	0.002788	0.661730	0.000000	0.000000	0.000000	0.000000	0.000000	1
13.796152	6.315140	0.000000	0.000632	0.003657	0.000000	0.003711	1.031409	0.000000	0.000000	0.000000	0.000000	0.000000	1
16.905145	6.315140	0.000000	0.000116	0.010089	0.000000	0.010090	1.125851	0.000000	0.000000	0.000000	0.000000	0.000000	1
20.014137	6.315140	0.000000	-0.004066	0.010552	0.000000	0.011308	1.235509	0.000000	0.000000	0.000000	0.000000	0.000000	1
23.123129	6.315140	0.000000	-0.002151	0.011629	0.000000	0.011826	0.644694	0.000000	0.000000	0.000000	0.000000	0.000000	1
26.232121	6.315140	0.000000	0.001511	0.005336	0.000000	0.005546	1.282200	0.000000	0.000000	0.000000	0.000000	0.000000	1
29.341113	6.315140	0.000000	0.002605	0.016314	0.000000	0.016521	2.343278	0.000000	0.000000	0.000000	0.000000	0.000000	1
32.450105	6.315140	0.000000	0.003563	0.023695	0.000000	0.023962	1.251315	0.000000	0.000000	0.000000	0.000000	0.000000	1
35.559097	6.315140	0.000000	0.003374	0.026378	0.000000	0.026593	-2.961851	0.000000	0.000000	0.000000	0.000000	0.000000	1
38.668089	6.315140	0.000000	0.000793	-0.004871	0.000000	0.004935	-3.129330	0.000000	0.000000	0.000000	0.000000	0.000000	1
41.777081	6.315140	0.000000	-0.000119	-0.005648	0.000000	0.005650	0.574676	0.000000	0.000000	0.000000	0.000000	0.000000	1
44.886073	6.315140	0.000000	-0.001347	-0.004017	0.000000	0.004237	0.553353	0.000000	0.000000	0.000000	0.000000	0.000000	1
47.995066	6.315140	0.000000	0.000470	-0.004303	0.000000	0.004329	0.599354	0.000000	0.000000	0.000000	0.000000	0.000000	1
51.104058	6.315140	0.000000	0.003944	-0.005706	0.000000	0.006937	-0.180047	0.000000	0.000000	0.000000	0.000000	0.000000	1
54.213050	6.315140	0.000000	-0.002376	-0.042208	0.000000	0.042275	5.454538	0.000000	0.000000	0.000000	0.000000	0.000000	2
57.322042	6.315140	0.000000	-0.024678	-0.010131	0.000000	0.026676	46.796976	0.000000	0.000000	0.000000	0.000000	0.000000	2
60.431034	6.315140	0.000000	-0.038121	0.005427	0.000000	0.038506	156.019988	0.000000	0.000000	0.000000	0.000000	0.000000	1
63.540026	6.315140	0.000000	-0.485933	0.588272	0.000000	0.763017	176.643027	0.000000	0.000000	0.000000	0.000000	0.000000	1
66.649018	6.315140	0.000000	-0.581136	0.640093	0.000000	0.864545	44.749749	0.000000	0.000000	0.000000	0.000000	0.000000	1
69.758010	6.315140	0.000000	-0.456254	0.368342	0.000000	0.586381	-47.894626	0.000000	0.000000	0.000000	0.000000	0.000000	2
72.867002	6.315140	0.000000	-0.295439	0.191731	0.000000	0.352200	-51.073733	0.000000	0.000000	0.000000	0.000000	0.000000	1
75.975994	6.315140	0.000000	-0.232446	0.180889	0.000000	0.294537	-41.106692	0.000000	0.000000	0.000000	0.000000	0.000000	1
79.084987	6.315140	0.000000	-0.077967	0.054085	0.000000	0.094890	-25.773602	0.000000	0.000000	0.000000	0.000000	0.000000	1
82.193979	6.315140	0.000000	-0.028193	0.023234	0.000000	0.036533	-3.445042	0.000000	0.000000	0.000000	0.000000	0.000000	1
85.302971	6.315140	0.000000	0.013817	0.012983	0.000000	0.018960	0.403091	0.000000	0.000000	0.000000	0.000000	0.000000	1
88.411963	6.315140	0.000000	0.000240	-0.000538	0.000000	0.000589	-1.074634	0.000000	0.000000	0.000000	0.000000	0.000000	1
91.520955	6.315140	0.000000	-0.025598	0.004141	0.000000	0.025931	-4.339257	0.000000	0.000000	0.000000	0.000000	0.000000	2
94.629947	6.315140	0.000000	0.012229	-0.013822	0.000000	0.018456	-3.475336	0.000000	0.000000	0.000000	0.000000	0.000000	1
97.738939	6.315140	0.000000	0.033301	-0.001077	0.000000	0.033318	1.208097	0.000000	0.000000	0.000000	0.000000	0.000000	2
100.847931	6.315140	0.000000	-0.030000	0.006079	0.000000	0.030610	-0.661846	0.000000	0.000000	0.000000	0.000000	0.000000	1
103.956923	6.315140	0.000000	-0.023304	0.007718	0.000000	0.024548	-3.100173	0.000000	0.000000	0.000000	0.000000	0.000000	1
107.065915	6.315140	0.000000	0.006285	0.009946	0.000000	0.011766	-4.718275	0.000000	0.000000	0.000000	0.000000	0.000000	1
110.174908	6.315140	0.000000	0.007823	0.000655	0.000000	0.007850	-5.771780	0.000000	0.000000	0.000000	0.000000	0.000000	1
113.283900	6.315140	0.000000	0.009014	0.003235	0.000000	0.009577	-2.971084	0.000000	0.000000	0.000000	0.000000	0.000000	1
116.392892	6.315140	0.000000	-0.010498	0.014384	0.000000	0.017808	-1.332915	0.000000	0.000000	0.000000	0.000000	0.000000	1
119.501884	6.315140	0.000000	-0.007519	0.003937	0.000000	0.008487	-1.983868	0.000000	0.000000	0.000000	0.000000	0.000000	1
122.610876	6.315140	0.000000	-0.004564	0.000944	0.000000	0.004661	-1.981566	0.000000	0.000000	0.000000	0.000000	0.000000	1
125.719868	6.315140	0.000000	-0.004136	0.001065	0.000000	0.004271	0.084198	0.000000	0.000000	0.000000	0.000000	0.000000	1
128.828860	6.315140	0.000000	-0.004605	0.006137	0.000000	0.007673	1.520271	0.000000	0.000000	0.000000	0.000000	0.000000	1
131.937852	6.315140	0.000000	-0.007561	0.008161	0.000000	0.011125	0.328703	0.000000	0.000000	0.000000	0.000000	0.000000	1
135.046844	6.315140	0.000000	-0.005924	0.002595	0.000000	0.006468	0.731593	0.000000	0.000000	0.000000	0.000000	0.000000	1
138.155836	6.315140	0.000000	-0.006506	0.005802	0.000000	0.008717	1.730980	0.000000	0.000000	0.000000	0.000000	0.000000	1
141.264829	6.315140	0.000000	-0.009151	0.007566	0.000000	0.011873	1.647091	0.000000	0.000000	0.000000	0.000000	0.000000	1
144.373821	6.315140	0.000000	-0.006805	0.005618	0.000000	0.008825	0.734817	0.000000	0.000000	0.000000	0.000000	0.000000	1
147.482813	6.315140	0.000000	-0.003677	0.002490	0.000000	0.004440	0.851185	0.000000	0.000000	0.000000	0.000000	0.000000	1
150.591805	6.315140	0.000000	-0.003748	0.002738	0.000000	0.004642	1.486331	0.000000	0.000000	0.000000	0.000000	0.000000	1
153.700797	6.315140	0.000000	-0.010704	0.007450	0.000000	0.013042	0.630569	0.000000	0.000000	0.000000	0.000000	0.000000	1
156.809789	6.315140	0.000000	-0.008780	0.005900	0.000000	0.010578	0.001494	0.000000	0.000000	0.000000	0.000000	0.000000	1
159.918781	6.315140	0.000000	-0.003615	0.003239	0.000000	0.004853	0.057843	0.000000	0.000000	0.000000	0.000000	0.000000	1
4.469176	9.424132	0.000000	-0.000813	0.021093	0.000000	0.021109	-3.129436	0.000000	0.000000	0.000000	0.000000	0.000000	1
7.578168	9.424132	0.000000	0.002626	0.005843	0.000000	0.006406	-1.607519	0.000000	0.000000	0.000000	0.000000	0.000000	1
10.687160	9.424132	0.000000	0.001309	0.003621	0.000000	0.003850	0.331454	0.000000	0.000000	0.000000	0.000000	0.000000	1
13.796152	9.424132	0.000000	0.000199	0.002588	0.000000	0.002596	0.289558	0.000000	0.000000	0.000000	0.000000	0.000000	1
16.905145	9.424132	0.000000	0.002321	0.006003	0.000000	0.006436	0.021480	0.000000	0.000000	0.000000	0.000000	0.000000	1
20.014137	9.424132	0.000000	-0.002988	0.011122	0.000000	0.011516	-0.314114	0.000000	0.000000	0.000000	0.000000	0.000000	1
23.123129	9.424132	0.000000	-0.003407	0.010951	0.000000	0.011469	-1.191030	0.000000	0.000000	0.000000	0.000000	0.000000	1
26.232121	9.424132	0.000000	0.001648	0.006676	0.000000	0.006877	0.987512	0.000000	0.000000	0.000000	0.000000	0.000000	1
29.341113	9.424132	0.000000	0.000992	0.017465	0.000000	0.017493	3.065680	0.000000	0.000000	0.000000	0.000000	0.000000	1
32.450105	9.424132	0.000000	0.001365	0.024128	0.000000	0.024166	1.997532	0.000000	0.000000	0.000000	0.000000	0.000000	1
35.559097	9.424132	0.000000	0.003574	0.029277	0.000000	0.029494	-2.814234	0.000000	0.000000	0.000000	0.000000	0.000000	1
38.668089	9.424132	0.000000	-0.001950	0.002737	0.000000	0.003361	-3.881347	0.000000	0.000000	0.000000	0.000000	0.000000	1
41.777081	9.424132	0.000000	-0.005750	-0.001684	0.000000	0.005992	0.095773	0.000000	0.000000	0.000000	0.000000	0.000000	1
44.886073	9.424132	0.000000	-0.004976	-0.004585	0.000000	0.006767	0.495964	0.000000	0.000000	0.000000	0.000000	0.000000	1
47.995066	9.424132	0.000000	-0.007828	-0.010206	0.000000	0.012863	-2.024965	0.000000	0.000000	0.000000	0.000000	0.000000	1
51.104058	9.424132	0.000000	-0.031599	-0.038972	0.000000	0.050173	-0.677819	0.000000	0.000000	0.000000	0.000000	0.000000	1
54.213050	9.424132	0.000000	-0.010897	-0.029948	0.000000	0.031868	22.518370	0.000000	0.000000	0.000000	0.000000	0.000000	1
57.322042	9.424132	0.000000	-0.049786	-0.008938	0.000000	0.050582	103.292166	0.000000	0.000000	0.000000	0.000000	0.000000	2
60.431034	9.424132	0.000000	-0.463549	0.480283	0.000000	0.667495	187.002458	0.000000	0.000000	0.000000	0.000000	0.000000	2
63.540026	9.424132	0.000000	-0.916408	0.845183	0.000000	1.246651	111.083884	0.000000	0.000000	0.000000	0.000000	0.000000	1
66.649018	9.424132	0.000000	-0.662460	0.691183	0.000000	0.957386	-38.257573	0.000000	0.000000	0.000000	0.000000	0.000000	2
69.758010	9.424132	0.000000	-0.454689	0.231814	0.000000	0.510372	-58.460950	0.000000	0.000000	0.000000	0.000000	0.000000	2
72.867002	9.424132	0.000000	-0.270750	0.135368	0.000000	0.302704	-21.935835	0.000000	0.000000	0.000000	0.000000	0.000000	1
75.975994	9.424132	0.000000	-0.180216	0.116528	0.000000	0.214608	-20.365935	0.000000	0.000000	0.000000	0.000000	0.000000	2
79.084987	9.424132	0.000000	-0.060614	0.054901	0.000000	0.081781	-16.929743	0.000000	0.000000	0.000000	0.000000	0.000000	1
82.193979	9.424132	0.000000	-0.054530	0.027003	0.000000	0.060850	-2.561274	0.000000	0.000000	0.000000	0.000000	0.000000	1
85.302971	9.424132	0.000000	-0.031763	0.020269	0.000000	0.037679	0.766133	0.000000	0.000000	0.000000	0.000000	0.000000	1
88.411963	9.424132	0.000000	0.003209	-0.000892	0.000000	0.003331	-1.160761	0.000000	0.000000	0.000000	0.000000	0.000000	1
91.520955	9.424132	0.000000	0.005095	0.007410	0.000000	0.008992	-1.083270	0.000000	0.000000	0.000000	0.000000	0.000000	1
94.629947	9.424132	0.000000	0.030102	0.011614	0.000000	0.032265	1.614708	0.000000	0.000000	0.000000	0.000000	0.000000	1
97.738939	9.424132	0.000000	0.014635	0.025721	0.000000	0.029594	3.842242	0.000000	0.000000	0.000000	0.000000	0.000000	1
100.847931	9.424132	0.000000	-0.001255	0.046949	0.000000	0.046966	-5.683261	0.000000	0.000000	0.000000	0.000000	0.000000	1
103.956923	9.424132	0.000000	-0.005046	0.020079	0.000000	0.020704	-10.194919	0.000000	0.000000	0.000000	0.000000	0.000000	2
107.065915	9.424132	0.000000	0.025902	0.001364	0.000000	0.025938	-4.368594	0.000000	0.000000	0.000000	0.000000	0.000000	1
110.174908	9.424132	0.000000	0.035439	0.004834	0.000000	0.035767	-2.542948	0.000000	0.000000	0.000000	0.000000	0.000000	1
113.283900	9.424132	0.000000	0.037122	0.006800	0.000000	0.037740	-1.771408	0.000000	0.000000	0.000000	0.000000	0.000000	1
116.392892	9.424132	0.000000	0.008426	0.023930	0.000000	0.025370	-4.025856	0.000000	0.000000	0.000000	0.000000	0.000000	1
119.501884	9.424132	0.000000	0.000019	0.029693	0.000000	0.029693	-8.940715	0.000000	0.000000	0.000000	0.000000	0.000000	1
122.610876	9.424132	0.000000	0.008222	0.023414	0.000000	0.024815	-10.674151	0.000000	0.000000	0.000000	0.000000	0.000000	1
125.719868	9.424132	0.000000	-0.007851	-0.001478	0.000000	0.007989	-6.175453	0.000000	0.000000	0.000000	0.000000	0.000000	1
128.828860	9.424132	0.000000	-0.002995	0.005839	0.000000	0.006562	-0.748524	0.000000	0.000000	0.000000	0.000000	0.000000	1
131.937852	9.424132	0.000000	-0.002397	0.007477	0.000000	0.007852	-1.015420	0.000000	0.000000	0.000000	0.000000	0.000000	1
135.046844	9.424132	0.000000	-0.009272	0.005788	0.000000	0.010930	-1.448209	0.000000	0.000000	0.000000	0.000000	0.000000	1
138.155836	9.424132	0.000000	-0.006951	0.004113	0.000000	0.008077	0.052524	0.000000	0.000000	0.000000	0.000000	0.000000	1
141.264829	9.424132	0.000000	-0.008976	0.008019	0.000000	0.012036	0.521610	0.000000	0.000000	0.000000	0.000000	0.000000	1
144.373821	9.424132	0.000000	-0.007901	0.007238	0.000000	0.010715	0.796787	0.000000	0.000000	0.000000	0.000000	0.000000	1
147.482813	9.424132	0.000000	-0.012765	0.010301	0.000000	0.016403	2.572749	0.000000	0.000000	0.000000	0.000000	0.000000	1
150.591805	9.424132	0.000000	-0.016824	0.012577	0.000000	0.021006	3.300382	0.000000	0.000000	0.000000	0.000000	0.000000	1
153.700797	9.424132	0.000000	-0.010167	0.010658	0.000000	0.014730	0.887653	0.000000	0.000000	0.000000	0.000000	0.000000	1
156.809789	9.424132	0.000000	-0.008974	0.007393	0.000000	0.011627	-1.569808	0.000000	0.000000	0.000000	0.000000	0.000000	1
159.918781	9.424132	0.000000	-0.006097	0.000250	0.000000	0.006102	-1.665980	0.000000	0.000000	0.000000	0.000000	0.000000	1
4.469176	12.533124	0.000000	0.000465	0.009544	0.000000	0.009555	-2.736958	0.000000	0.000000	0.000000	0.000000	0.000000	1
7.578168	12.533124	0.000000	0.002279	0.004126	0.000000	0.004714	-1.005707	0.000000	0.000000	0.000000	0.000000	0.000000	1
10.687160	12.533124	0.000000	0.002068	0.006737	0.000000	0.007047	1.399179	0.000000	0.000000	0.000000	0.000000	0.000000	1
13.796152	12.533124	0.000000	0.000415	0.017832	0.000000	0.017837	0.134875	0.000000	0.000000	0.000000	0.000000	0.000000	1
16.905145	12.533124	0.000000	0.002545	0.004675	0.000000	0.005322	-0.778670	0.000000	0.000000	0.000000	0.000000	0.000000	1
20.014137	12.533124	0.000000	0.003642	0.006752	0.000000	0.007672	-0.628044	0.000000	0.000000	0.000000	0.000000	0.000000	1
23.123129	12.533124	0.000000	0.001787	0.007209	0.000000	0.007427	-1.077309	0.000000	0.000000	0.000000	0.000000	0.000000	1
26.232121	12.533124	0.000000	0.004351	0.009659	0.000000	0.010594	0.579157	0.000000	0.000000	0.000000	0.000000	0.000000	1
29.341113	12.533124	0.000000	-0.003878	0.017191	0.000000	0.017623	-0.445617	0.000000	0.000000	0.000000	0.000000	0.000000	1
32.450105	12.533124	0.000000	-0.003436	0.015522	0.000000	0.015897	-2.489902	0.000000	0.000000	0.000000	0.000000	0.000000	1
35.559097	12.533124	0.000000	0.002883	0.012214	0.000000	0.012550	-2.628828	0.000000	0.000000	0.000000	0.000000	0.000000	1
38.668089	12.533124	0.000000	-0.001448	0.006652	0.000000	0.006807	-2.107638	0.000000	0.000000	0.000000	0.000000	0.000000	1
41.777081	12.533124	0.000000	-0.005697	-0.000923	0.000000	0.005771	-0.626402	0.000000	0.000000	0.000000	0.000000	0.000000	1
44.886073	12.533124	0.000000	-0.007426	0.003349	0.000000	0.008147	-0.762104	0.000000	0.000000	0.000000	0.000000	0.000000	1
47.995066	12.533124	0.000000	-0.008969	-0.000063	0.000000	0.008969	-5.518580	0.000000	0.000000	0.000000	0.000000	0.000000	1
51.104058	12.533124	0.000000	-0.023237	-0.028690	0.000000	0.036919	0.550295	0.000000	0.000000	0.000000	0.000000	0.000000	1
54.213050	12.533124	0.000000	-0.021152	-0.022111	0.000000	0.030599	45.437377	0.000000	0.000000	0.000000	0.000000	0.000000	1
57.322042	12.533124	0.000000	-0.161540	0.274149	0.000000	0.318203	86.695804	0.000000	0.000000	0.000000	0.000000	0.000000	2
60.431034	12.533124	0.000000	-0.646068	0.578428	0.000000	0.867169	76.092091	0.000000	0.000000	0.000000	0.000000	0.000000	1
63.540026	12.533124	0.000000	-0.888258	0.863547	0.000000	1.238836	-24.523807	0.000000	0.000000	0.000000	0.000000	0.000000	1
66.649018	12.533124	0.000000	-0.900051	0.553329	0.000000	1.056534	-91.483547	0.000000	0.000000	0.000000	0.000000	0.000000	2
69.758010	12.533124	0.000000	-0.517987	0.256787	0.000000	0.578143	-30.497141	0.000000	0.000000	0.000000	0.000000	0.000000	2
72.867002	12.533124	0.000000	-0.306051	0.206287	0.000000	0.369082	5.233239	0.000000	0.000000	0.000000	0.000000	0.000000	2
75.975994	12.533124	0.000000	-0.178031	0.100680	0.000000	0.204528	-7.008199	0.000000	0.000000	0.000000	0.000000	0.000000	2
79.084987	12.533124	0.000000	-0.078964	0.095546	0.000000	0.123953	-9.246792	0.000000	0.000000	0.000000	0.000000	0.000000	1
82.193979	12.533124	0.000000	-0.059504	0.037417	0.000000	0.070290	-10.488568	0.000000	0.000000	0.000000	0.000000	0.000000	1
85.302971	12.533124	0.000000	-0.037093	0.027678	0.000000	0.046282	-12.308785	0.000000	0.000000	0.000000	0.000000	0.000000	1
88.411963	12.533124	0.000000	0.000369	0.003035	0.000000	0.003057	-4.616550	0.000000	0.000000	0.000000	0.000000	0.000000	1
91.520955	12.533124	0.000000	0.006521	0.014838	0.000000	0.016208	3.017556	0.000000	0.000000	0.000000	0.000000	0.000000	1
94.629947	12.533124	0.000000	0.012100	0.028603	0.000000	0.031057	0.407910	0.000000	0.000000	0.000000	0.000000	0.000000	1
97.738939	12.533124	0.000000	0.003058	0.025212	0.000000	0.025396	-3.054150	0.000000	0.000000	0.000000	0.000000	0.000000	1
100.847931	12.533124	0.000000	0.023174	0.026153	0.000000	0.034943	-7.110209	0.000000	0.000000	0.000000	0.000000	0.000000	1
103.956923	12.533124	0.000000	0.038383	0.024139	0.000000	0.045343	-5.424328	0.000000	0.000000	0.000000	0.000000	0.000000	1
107.065915	12.533124	0.000000	0.010597	0.040748	0.000000	0.042103	2.631553	0.000000	0.000000	0.000000	0.000000	0.000000	1
110.174908	12.533124	0.000000	0.025953	0.041477	0.000000	0.048928	4.657925	0.000000	0.000000	0.000000	0.000000	0.000000	1
113.283900	12.533124	0.000000	0.030479	0.035377	0.000000	0.046696	3.943837	0.000000	0.000000	0.000000	0.000000	0.000000	2
116.392892	12.533124	0.000000	0.030045	0.047103	0.000000	0.055869	-4.706926	0.000000	0.000000	0.000000	0.000000	0.000000	1
119.501884	12.533124	0.000000	0.030965	0.029796	0.000000	0.042973	-15.042666	0.000000	0.000000	0.000000	0.000000	0.000000	1
122.610876	12.533124	0.000000	0.048331	0.009609	0.000000	0.049276	-14.167516	0.000000	0.000000	0.000000	0.000000	0.000000	1
125.719868	12.533124	0.000000	0.028627	0.006559	0.000000	0.029369	-8.283787	0.000000	0.000000	0.000000	0.000000	0.000000	1
128.828860	12.533124	0.000000	-0.003065	0.005932	0.000000	0.006676	-2.927308	0.000000	0.000000	0.000000	0.000000	0.000000	1
131.937852	12.533124	0.000000	-0.000236	0.006104	0.000000	0.006109	-0.777584	0.000000	0.000000	0.000000	0.000000	0.000000	1
135.046844	12.533124	0.000000	0.003459	0.009891	0.000000	0.010479	-1.974142	0.000000	0.000000	0.000000	0.000000	0.000000	1
138.155836	12.533124	0.000000	-0.007811	0.003958	0.000000	0.008756	-0.697595	0.000000	0.000000	0.000000	0.000000	0.000000	1
141.264829	12.533124	0.000000	-0.005867	0.011823	0.000000	0.013198	1.314965	0.000000	0.000000	0.000000	0.000000	0.000000	1
144.373821	12.533124	0.000000	-0.012522	0.010411	0.000000	0.016285	1.326270	0.000000	0.000000	0.000000	0.000000	0.000000	1
147.482813	12.533124	0.000000	-0.019166	0.008512	0.000000	0.020972	1.585437	0.000000	0.000000	0.000000	0.000000	0.000000	1
150.591805	12.533124	0.000000	-0.025579	0.008075	0.000000	0.026823	2.358343	0.000000	0.000000	0.000000	0.000000	0.000000	1
153.700797	12.533124	0.000000	-0.019503	0.016975	0.000000	0.025856	0.621533	0.000000	0.000000	0.000000	0.000000	0.000000	1
156.809789	12.533124	0.000000	-0.004359	0.002353	0.000000	0.004953	-0.934736	0.000000	0.000000	0.000000	0.000000	0.000000	1
159.918781	12.533124	0.000000	-0.004775	0.001843	0.000000	0.005118	0.063761	0.000000	0.000000	0.000000	0.000000	0.000000	1
4.469176	15.642117	0.000000	0.004678	0.007409	0.000000	0.008762	-0.976578	0.000000	0.000000	0.000000	0.000000	0.000000	1
7.578168	15.642117	0.000000	0.003299	0.005620	0.000000	0.006517	-0.041495	0.000000	0.000000	0.000000	0.000000	0.000000	1
10.687160	15.642117	0.000000	0.000590	0.011597	0.000000	0.011612	0.701652	0.000000	0.000000	0.000000	0.000000	0.000000	1
13.796152	15.642117	0.000000	-0.001932	0.013367	0.000000	0.013506	-0.544900	0.000000	0.000000	0.000000	0.000000	0.000000	1
16.905145	15.642117	0.000000	0.002526	0.011919	0.000000	0.012183	-0.626826	0.000000	0.000000	0.000000	0.000000	0.000000	1
20.014137	15.642117	0.000000	0.003312	0.012206	0.000000	0.012648	-0.032218	0.000000	0.000000	0.000000	0.000000	0.000000	1
23.123129	15.642117	0.000000	0.004246	0.006740	0.000000	0.007966	0.245893	0.000000	0.000000	0.000000	0.000000	0.000000	1
26.232121	15.642117	0.000000	0.002929	0.006930	0.000000	0.007523	1.706100	0.000000	0.000000	0.000000	0.000000	0.000000	1
29.341113	15.642117	0.000000	0.016115	0.020004	0.000000	0.025688	-1.345714	0.000000	0.000000	0.000000	0.000000	0.000000	1
32.450105	15.642117	0.000000	0.015778	0.012611	0.000000	0.020199	-4.339845	0.000000	0.000000	0.000000	0.000000	0.000000	1
35.559097	15.642117	0.000000	0.011810	0.008404	0.000000	0.014495	-1.387866	0.000000	0.000000	0.000000	0.000000	0.000000	1
38.668089	15.642117	0.000000	-0.005031	0.014162	0.000000	0.015029	0.355332	0.000000	0.000000	0.000000	0.000000	0.000000	1
41.777081	15.642117	0.000000	-0.005631	0.015412	0.000000	0.016408	-0.718436	0.000000	0.000000	0.000000	0.000000	0.000000	1
44.886073	15.642117	0.000000	-0.004824	0.009818	0.000000	0.010939	-1.450534	0.000000	0.000000	0.000000	0.000000	0.000000	1
47.995066	15.642117	0.000000	-0.006011	0.005499	0.000000	0.008147	-1.147997	0.000000	0.000000	0.000000	0.000000	0.000000	1
51.104058	15.642117	0.000000	-0.014273	-0.007862	0.000000	0.016295	14.040205	0.000000	0.000000	0.000000	0.000000	0.000000	1
54.213050	15.642117	0.000000	-0.066487	0.063902	0.000000	0.092217	62.375346	0.000000	0.000000	0.000000	0.000000	0.000000	2
57.322042	15.642117	0.000000	-0.176188	0.266287	0.000000	0.319298	59.143599	0.000000	0.000000	0.000000	0.000000	0.000000	1
60.431034	15.642117	0.000000	-0.316183	0.347862	0.000000	0.470085	9.854203	0.000000	0.000000	0.000000	0.000000	0.000000	1
63.540026	15.642117	0.000000	-0.607269	0.603401	0.000000	0.856077	-71.039543	0.000000	0.000000	0.000000	0.000000	0.000000	1
66.649018	15.642117	0.000000	-0.639906	0.365403	0.000000	0.736885	-109.058531	0.000000	0.000000	0.000000	0.000000	0.000000	1
69.758010	15.642117	0.000000	-0.712171	0.251678	0.000000	0.755334	-41.585197	0.000000	0.000000	0.000000	0.000000	0.000000	1
72.867002	15.642117	0.000000	-0.348248	0.286868	0.000000	0.451187	5.452424	0.000000	0.000000	0.000000	0.000000	0.000000	1
75.975994	15.642117	0.000000	-0.264508	0.312567	0.000000	0.409466	0.738670	0.000000	0.000000	0.000000	0.000000	0.000000	1
79.084987	15.642117	0.000000	-0.105500	0.123541	0.000000	0.162458	-5.875075	0.000000	0.000000	0.000000	0.000000	0.000000	2
82.193979	15.642117	0.000000	-0.036317	0.142781	0.000000	0.147327	-7.833809	0.000000	0.000000	0.000000	0.000000	0.000000	2
85.302971	15.642117	0.000000	0.012775	0.069113	0.000000	0.070284	-12.963713	0.000000	0.000000	0.000000	0.000000	0.000000	2
88.411963	15.642117	0.000000	0.001309	0.038683	0.000000	0.038705	-3.021915	0.000000	0.000000	0.000000	0.000000	0.000000	1
91.520955	15.642117	0.000000	0.003279	0.031750	0.000000	0.031919	3.757939	0.000000	0.000000	0.000000	0.000000	0.000000	1
94.629947	15.642117	0.000000	0.018687	0.033147	0.000000	0.038051	-0.782765	0.000000	0.000000	0.000000	0.000000	0.000000	1
97.738939	15.642117	0.000000	0.040931	0.004487	0.000000	0.041176	-4.955647	0.000000	0.000000	0.000000	0.000000	0.000000	2
100.847931	15.642117	0.000000	0.044471	0.013649	0.000000	0.046518	-0.905465	0.000000	0.000000	0.000000	0.000000	0.000000	2
103.956923	15.642117	0.000000	0.054098	0.012321	0.000000	0.055483	5.204554	0.000000	0.000000	0.000000	0.000000	0.000000	1
107.065915	15.642117	0.000000	0.007722	0.040963	0.000000	0.041685	5.617755	0.000000	0.000000	0.000000	0.000000	0.000000	1
110.174908	15.642117	0.000000	0.005565	0.051250	0.000000	0.051551	-1.904046	0.000000	0.000000	0.000000	0.000000	0.000000	1
113.283900	15.642117	0.000000	0.028826	0.075895	0.000000	0.081185	-9.444026	0.000000	0.000000	0.000000	0.000000	0.000000	2
116.392892	15.642117	0.000000	0.023743	0.087843	0.000000	0.090996	-17.486277	0.000000	0.000000	0.000000	0.000000	0.000000	1
119.501884	15.642117	0.000000	0.078159	0.047573	0.000000	0.091499	-19.339749	0.000000	0.000000	0.000000	0.000000	0.000000	1